 vasp.6.2.0 18Jan21 (build Apr 30 2021 19:00:08) gamma-only                     
  
 executed on             LinuxIFC date 2022.11.10  12:00:10
 running on   48 total cores
 distrk:  each k-point on   48 cores,    1 groups
 distr:  one band on NCORE=  12 cores,    4 groups


--------------------------------------------------------------------------------------------------------


 INCAR:
   SYSTEM = Diamond
   PREC = Normal
   ISTART = 0
   ICHARG = 11
   ISPIN = 2
   MAGMOM = 568*0.0 2*1.0 6*1.0
   NPAR = 4
   NELECT = 2305
   LHYPERFINE = T
   LEFG = T
   ENCUT = 700
   NELM = 1000
   NELMIN = 4
   EDIFF = 1E-06
   LREAL = Auto
   ALGO = Normal
   EDIFFG = -1E-02
   NSW = 0
   IBRION = 2
   ISIF = 2
   ISYM = 2
   POTIM = 0.5
   ISMEAR = 0
   SIGMA = 0.05
   NEDOS = 1000
   LWAVE = F
   LCHARG = F
   LVHAR = F
   LELF = F

 POTCAR:    PAW_PBE C 08Apr2002                   
 POTCAR:    PAW_PBE N 08Apr2002                   
 POTCAR:    PAW_PBE C 08Apr2002                   
 POTCAR:    PAW_PBE C 08Apr2002                   
   VRHFIN =C: s2p2                                                                                  
   LEXCH  = PE                                                                                      
   EATOM  =   147.1560 eV,   10.8157 Ry                                                             
                                                                                                    
   TITEL  = PAW_PBE C 08Apr2002                                                                     
   LULTRA =        F    use ultrasoft PP ?                                                          
   IUNSCR =        1    unscreen: 0-lin 1-nonlin 2-no                                               
   RPACOR =    1.200    partial core radius                                                         
   POMASS =   12.011; ZVAL   =    4.000    mass and valenz                                          
   RCORE  =    1.500    outmost cutoff radius                                                       
   RWIGS  =    1.630; RWIGS  =    0.863    wigner-seitz radius (au A)                               
   ENMAX  =  400.000; ENMIN  =  300.000 eV                                                          
   ICORE  =        2    local potential                                                             
   LCOR   =        T    correct aug charges                                                         
   LPAW   =        T    paw PP                                                                      
   EAUG   =  644.873                                                                                
   DEXC   =    0.000                                                                                
   RMAX   =    1.529    core radius for proj-oper                                                   
   RAUG   =    1.300    factor for augmentation sphere                                              
   RDEP   =    1.501    radius for radial grids                                                     
   RDEPT  =    1.300    core radius for aug-charge                                                  
                                                                                                    
   Atomic configuration                                                                             
    4 entries                                                                                       
     n  l   j            E        occ.                                                              
     1  0  0.50      -273.3789   2.0000                                                             
     2  0  0.50       -13.7508   2.0000                                                             
     2  1  0.50        -5.2854   2.0000                                                             
     3  2  1.50        -5.4423   0.0000                                                             
   Description                                                                                      
     l       E           TYP  RCUT    TYP  RCUT                                                     
     0    -13.7508458     23  1.200                                                                 
     0     -8.2022199     23  1.200                                                                 
     1     -5.2854383     23  1.500                                                                 
     1     34.0145650     23  1.500                                                                 
     2     -5.4423304      7  1.500                                                                 
  local pseudopotential read in
  partial core-charges read in
  partial kinetic energy density read in
  atomic valenz-charges read in
  non local Contribution for L=           0  read in
    real space projection operators read in
  non local Contribution for L=           0  read in
    real space projection operators read in
  non local Contribution for L=           1  read in
    real space projection operators read in
  non local Contribution for L=           1  read in
    real space projection operators read in
    PAW grid and wavefunctions read in
 
   number of l-projection  operators is LMAX  =           4
   number of lm-projection operators is LMMAX =           8
 
 POTCAR:    PAW_PBE N 08Apr2002                   
   VRHFIN =N: s2p3                                                                                  
   LEXCH  = PE                                                                                      
   EATOM  =   264.5486 eV,   19.4438 Ry                                                             
                                                                                                    
   TITEL  = PAW_PBE N 08Apr2002                                                                     
   LULTRA =        F    use ultrasoft PP ?                                                          
   IUNSCR =        1    unscreen: 0-lin 1-nonlin 2-no                                               
   RPACOR =    1.200    partial core radius                                                         
   POMASS =   14.001; ZVAL   =    5.000    mass and valenz                                          
   RCORE  =    1.500    outmost cutoff radius                                                       
   RWIGS  =    1.400; RWIGS  =    0.741    wigner-seitz radius (au A)                               
   ENMAX  =  400.000; ENMIN  =  300.000 eV                                                          
   ICORE  =        2    local potential                                                             
   LCOR   =        T    correct aug charges                                                         
   LPAW   =        T    paw PP                                                                      
   EAUG   =  627.112                                                                                
   DEXC   =    0.000                                                                                
   RMAX   =    1.529    core radius for proj-oper                                                   
   RAUG   =    1.300    factor for augmentation sphere                                              
   RDEP   =    1.514    radius for radial grids                                                     
   RDEPT  =    1.338    core radius for aug-charge                                                  
                                                                                                    
   Atomic configuration                                                                             
    4 entries                                                                                       
     n  l   j            E        occ.                                                              
     1  0  0.50      -384.7179   2.0000                                                             
     2  0  0.50       -18.5828   2.0000                                                             
     2  1  0.50        -7.0898   3.0000                                                             
     3  2  1.50        -6.8029   0.0000                                                             
   Description                                                                                      
     l       E           TYP  RCUT    TYP  RCUT                                                     
     0    -18.5828119     23  1.200                                                                 
     0    -13.5018863     23  1.200                                                                 
     1     -7.0897853     23  1.500                                                                 
     1      9.5240782     23  1.500                                                                 
     2     -6.8029130      7  1.500                                                                 
  local pseudopotential read in
  partial core-charges read in
  partial kinetic energy density read in
  atomic valenz-charges read in
  non local Contribution for L=           0  read in
    real space projection operators read in
  non local Contribution for L=           0  read in
    real space projection operators read in
  non local Contribution for L=           1  read in
    real space projection operators read in
  non local Contribution for L=           1  read in
    real space projection operators read in
    PAW grid and wavefunctions read in
 
   number of l-projection  operators is LMAX  =           4
   number of lm-projection operators is LMMAX =           8
 
 POTCAR:    PAW_PBE C 08Apr2002                   
   VRHFIN =C: s2p2                                                                                  
   LEXCH  = PE                                                                                      
   EATOM  =   147.1560 eV,   10.8157 Ry                                                             
                                                                                                    
   TITEL  = PAW_PBE C 08Apr2002                                                                     
   LULTRA =        F    use ultrasoft PP ?                                                          
   IUNSCR =        1    unscreen: 0-lin 1-nonlin 2-no                                               
   RPACOR =    1.200    partial core radius                                                         
   POMASS =   12.011; ZVAL   =    4.000    mass and valenz                                          
   RCORE  =    1.500    outmost cutoff radius                                                       
   RWIGS  =    1.630; RWIGS  =    0.863    wigner-seitz radius (au A)                               
   ENMAX  =  400.000; ENMIN  =  300.000 eV                                                          
   ICORE  =        2    local potential                                                             
   LCOR   =        T    correct aug charges                                                         
   LPAW   =        T    paw PP                                                                      
   EAUG   =  644.873                                                                                
   DEXC   =    0.000                                                                                
   RMAX   =    1.529    core radius for proj-oper                                                   
   RAUG   =    1.300    factor for augmentation sphere                                              
   RDEP   =    1.501    radius for radial grids                                                     
   RDEPT  =    1.300    core radius for aug-charge                                                  
                                                                                                    
   Atomic configuration                                                                             
    4 entries                                                                                       
     n  l   j            E        occ.                                                              
     1  0  0.50      -273.3789   2.0000                                                             
     2  0  0.50       -13.7508   2.0000                                                             
     2  1  0.50        -5.2854   2.0000                                                             
     3  2  1.50        -5.4423   0.0000                                                             
   Description                                                                                      
     l       E           TYP  RCUT    TYP  RCUT                                                     
     0    -13.7508458     23  1.200                                                                 
     0     -8.2022199     23  1.200                                                                 
     1     -5.2854383     23  1.500                                                                 
     1     34.0145650     23  1.500                                                                 
     2     -5.4423304      7  1.500                                                                 
  local pseudopotential read in
  partial core-charges read in
  partial kinetic energy density read in
  atomic valenz-charges read in
  non local Contribution for L=           0  read in
    real space projection operators read in
  non local Contribution for L=           0  read in
    real space projection operators read in
  non local Contribution for L=           1  read in
    real space projection operators read in
  non local Contribution for L=           1  read in
    real space projection operators read in
    PAW grid and wavefunctions read in
 
   number of l-projection  operators is LMAX  =           4
   number of lm-projection operators is LMMAX =           8
 
 Optimization of the real space projectors (new method)

 maximal supplied QI-value         = 25.13
 optimisation between [QCUT,QGAM] = [ 13.32, 26.89] = [ 49.69,202.52] Ry 
 Optimized for a Real-space Cutoff    1.01 Angstroem

   l    n(q)    QCUT    max X(q) W(low)/X(q) W(high)/X(q)  e(spline) 
   0      8    13.321   115.676    0.29E-03    0.42E-03    0.11E-06
   0      8    13.321    87.132    0.29E-03    0.42E-03    0.11E-06
   1      8    13.321     4.429    0.39E-03    0.33E-03    0.98E-07
   1      8    13.321     2.733    0.30E-03    0.26E-03    0.97E-07
 Optimization of the real space projectors (new method)

 maximal supplied QI-value         = 25.13
 optimisation between [QCUT,QGAM] = [ 13.32, 26.89] = [ 49.69,202.52] Ry 
 Optimized for a Real-space Cutoff    1.01 Angstroem

   l    n(q)    QCUT    max X(q) W(low)/X(q) W(high)/X(q)  e(spline) 
   0      8    13.321    79.467    0.28E-03    0.38E-03    0.11E-06
   0      8    13.321    66.151    0.27E-03    0.38E-03    0.11E-06
   1      8    13.321    23.070    0.40E-03    0.78E-03    0.29E-06
   1      8    13.321    16.668    0.40E-03    0.79E-03    0.30E-06
 Optimization of the real space projectors (new method)

 maximal supplied QI-value         = 25.13
 optimisation between [QCUT,QGAM] = [ 13.32, 26.89] = [ 49.69,202.52] Ry 
 Optimized for a Real-space Cutoff    1.01 Angstroem

   l    n(q)    QCUT    max X(q) W(low)/X(q) W(high)/X(q)  e(spline) 
   0      8    13.321   115.676    0.29E-03    0.42E-03    0.11E-06
   0      8    13.321    87.132    0.29E-03    0.42E-03    0.11E-06
   1      8    13.321     4.429    0.39E-03    0.33E-03    0.98E-07
   1      8    13.321     2.733    0.30E-03    0.26E-03    0.97E-07
  PAW_PBE C 08Apr2002                   :
 energy of atom  1       EATOM= -147.1560
 kinetic energy error for atom=    0.0032 (will be added to EATOM!!)
  PAW_PBE N 08Apr2002                   :
 energy of atom  2       EATOM= -264.5486
 kinetic energy error for atom=    0.0061 (will be added to EATOM!!)
  PAW_PBE C 08Apr2002                   :
 energy of atom  3       EATOM= -147.1560
 kinetic energy error for atom=    0.0032 (will be added to EATOM!!)
 
 
 POSCAR: Autosave
  positions in direct lattice
  velocities in cartesian coordinates
 exchange correlation table for  LEXCH =        8
   RHO(1)=    0.500       N(1)  =     2000
   RHO(2)=  100.500       N(2)  =     4000
 


--------------------------------------------------------------------------------------------------------


 ion  position               nearest neighbor table
   1  1.000  0.000  0.000- 433 1.54 285 1.54 379 1.54 473 1.55
   2  0.000  0.000  0.500- 432 1.54 378 1.54 286 1.54 472 1.55
   3  0.000  0.250  0.000- 427 1.54 287 1.54 381 1.54 467 1.55
   4  0.000  0.250  0.500- 426 1.54 288 1.54 380 1.54 466 1.55
   5  1.000  0.500  0.000- 289 1.54 429 1.54 469 1.54 383 1.54
   6  0.000  0.500  0.500- 468 1.54 428 1.54 290 1.54 382 1.54
   7  1.000  0.750  0.000- 431 1.54 291 1.54 385 1.54 471 1.55
   8  1.000  0.750  0.500- 430 1.54 384 1.54 292 1.54 470 1.54
   9  0.167  0.000  0.000- 441 1.54 293 1.54 387 1.54 433 1.55
  10  0.167  0.000  0.500- 294 1.54 440 1.54 386 1.54 432 1.55
  11  0.167  0.250  0.000- 295 1.54 435 1.54 389 1.54 427 1.54
  12  0.167  0.250  0.500- 296 1.54 434 1.54 388 1.54 426 1.55
  13  0.166  0.500  0.000- 297 1.54 429 1.54 437 1.54 391 1.54
  14  0.167  0.500  0.500- 298 1.54 390 1.54 428 1.54 436 1.55
  15  0.166  0.750  0.000- 439 1.54 299 1.54 393 1.54 431 1.55
  16  0.166  0.750  0.500- 392 1.54 300 1.54 430 1.54 438 1.54
  17  0.333  0.000  0.000- 301 1.54 449 1.54 441 1.54 395 1.55
  18  0.333  0.000  0.500- 302 1.54 440 1.54 448 1.54 394 1.54
  19  0.333  0.250  1.000- 435 1.54 303 1.54 443 1.54 397 1.55
  20  0.334  0.250  0.500- 304 1.54 396 1.54 434 1.55 442 1.55
  21  0.333  0.500  0.000- 437 1.54 399 1.54 305 1.55 445 1.55
  22  0.334  0.501  0.501- 398 1.54 574 1.55 444 1.55 436 1.56
  23  0.333  0.750  0.000- 306 1.54 401 1.54 439 1.54 447 1.54
  24  0.333  0.750  0.500- 438 1.54 307 1.54 400 1.54 446 1.55
  25  0.500  1.000  0.000- 308 1.54 449 1.54 457 1.54 403 1.55
  26  0.500  1.000  0.500- 309 1.54 448 1.54 456 1.54 402 1.55
  27  0.500  0.250  1.000- 443 1.54 451 1.54 310 1.55 405 1.55
  28  0.500  0.250  0.500- 404 1.54 311 1.54 442 1.54 450 1.55
  29  0.500  0.500  1.000- 445 1.54 407 1.54 453 1.55 312 1.55
  30  0.500  0.750  0.000- 447 1.54 409 1.54 455 1.54 313 1.55
  31  0.500  0.750  0.500- 446 1.54 314 1.54 454 1.55 408 1.55
  32  0.667  1.000  0.000- 315 1.54 465 1.54 457 1.54 411 1.54
  33  0.667  1.000  0.500- 464 1.54 316 1.54 456 1.54 410 1.54
  34  0.667  0.250  1.000- 317 1.54 451 1.54 413 1.54 459 1.54
  35  0.667  0.250  0.500- 458 1.54 412 1.54 450 1.54 318 1.54
  36  0.667  0.500  1.000- 415 1.54 453 1.54 319 1.55 461 1.55
  37  0.668  0.500  0.499- 460 1.54 414 1.54 452 1.55 320 1.55
  38  0.666  0.750  1.000- 463 1.54 321 1.54 417 1.54 455 1.55
  39  0.667  0.750  0.500- 322 1.54 454 1.54 462 1.55 416 1.55
  40  0.833  1.000  0.000- 473 1.54 323 1.54 419 1.54 465 1.55
  41  0.833  1.000  0.500- 472 1.54 324 1.54 418 1.54 464 1.55
  42  0.833  0.250  1.000- 467 1.54 325 1.54 421 1.54 459 1.54
  43  0.834  0.250  0.500- 466 1.54 420 1.54 326 1.54 458 1.55
  44  0.833  0.500  1.000- 327 1.54 469 1.54 461 1.54 423 1.54
  45  0.834  0.500  0.500- 468 1.54 460 1.54 328 1.54 422 1.54
  46  0.833  0.750  1.000- 471 1.54 329 1.54 425 1.54 463 1.55
  47  0.833  0.750  0.500- 470 1.54 330 1.54 424 1.54 462 1.54
  48  0.083  0.125  0.000- 387 1.54 331 1.54 427 1.54 379 1.54
  49  0.083  0.125  0.500- 386 1.54 332 1.54 426 1.54 378 1.55
  50  0.083  0.375  0.000- 389 1.54 333 1.54 429 1.54 381 1.54
  51  0.084  0.375  0.500- 388 1.54 334 1.54 428 1.54 380 1.55
  52  0.083  0.625  0.000- 391 1.54 335 1.54 383 1.54 431 1.54
  53  0.083  0.625  0.500- 382 1.54 430 1.54 336 1.54 390 1.54
  54  0.083  0.875  0.000- 393 1.54 337 1.54 433 1.54 385 1.55
  55  0.083  0.875  0.500- 392 1.54 432 1.54 338 1.54 384 1.54
  56  0.250  0.125  1.000- 395 1.54 339 1.54 387 1.54 435 1.55
  57  0.250  0.125  0.500- 340 1.54 394 1.54 434 1.54 386 1.55
  58  0.250  0.375  0.000- 437 1.54 389 1.54 397 1.55 341 1.55
  59  0.250  0.375  0.500- 342 1.54 436 1.54 396 1.55 388 1.55
  60  0.249  0.625  0.001- 399 1.54 343 1.54 391 1.54 439 1.55
  61  0.250  0.625  0.500- 390 1.54 438 1.54 344 1.54 398 1.55
  62  0.250  0.875  0.000- 345 1.54 401 1.54 441 1.54 393 1.54
  63  0.250  0.875  0.500- 440 1.54 346 1.54 392 1.54 400 1.55
  64  0.417  0.125  1.000- 395 1.54 347 1.54 403 1.54 443 1.55
  65  0.417  0.125  0.500- 348 1.54 394 1.54 442 1.54 402 1.54
  66  0.417  0.375  0.999- 397 1.54 405 1.55 445 1.55 349 1.55
  67  0.417  0.375  0.500- 444 1.54 350 1.54 396 1.55 404 1.55
  68  0.416  0.625  0.000- 399 1.54 447 1.54 351 1.55 407 1.55
  69  0.416  0.624  0.501- 398 1.54 575 1.55 406 1.55 446 1.56
  70  0.417  0.875  0.000- 401 1.54 409 1.54 352 1.54 449 1.55
  71  0.417  0.875  0.500- 353 1.54 400 1.54 408 1.55 448 1.55
  72  0.583  0.125  1.000- 403 1.54 354 1.54 411 1.54 451 1.55
  73  0.583  0.125  0.500- 402 1.54 410 1.54 450 1.54 355 1.54
  74  0.583  0.375  1.000- 405 1.54 453 1.54 356 1.55 413 1.55
  75  0.584  0.374  0.499- 412 1.54 404 1.54 357 1.55 452 1.55
  76  0.583  0.625  0.999- 455 1.54 415 1.54 407 1.55 358 1.55
  77  0.584  0.625  0.500- 406 1.54 359 1.54 454 1.55 414 1.55
  78  0.583  0.875  0.000- 409 1.54 417 1.54 360 1.54 457 1.54
  79  0.583  0.875  0.500- 361 1.54 408 1.54 416 1.54 456 1.55
  80  0.750  0.125  1.000- 419 1.54 362 1.54 459 1.54 411 1.54
  81  0.750  0.125  0.500- 418 1.54 458 1.54 363 1.54 410 1.54
  82  0.750  0.375  1.000- 364 1.54 421 1.54 461 1.54 413 1.54
  83  0.751  0.375  0.500- 420 1.54 365 1.55 412 1.55 460 1.55
  84  0.750  0.625  1.000- 463 1.54 423 1.54 366 1.55 415 1.55
  85  0.750  0.625  0.500- 414 1.54 367 1.54 462 1.54 422 1.54
  86  0.750  0.875  1.000- 425 1.54 368 1.54 465 1.54 417 1.55
  87  0.750  0.875  0.500- 424 1.54 369 1.54 416 1.54 464 1.54
  88  0.917  0.125  0.000- 379 1.54 370 1.54 467 1.54 419 1.55
  89  0.917  0.125  0.500- 378 1.54 466 1.54 371 1.54 418 1.55
  90  0.917  0.375  1.000- 381 1.54 372 1.54 469 1.54 421 1.54
  91  0.917  0.375  0.500- 380 1.54 373 1.54 468 1.54 420 1.54
  92  0.916  0.625  0.000- 383 1.54 374 1.54 471 1.54 423 1.55
  93  0.917  0.625  0.500- 422 1.54 382 1.54 470 1.54 375 1.54
  94  0.917  0.875  0.000- 385 1.54 376 1.54 473 1.54 425 1.55
  95  0.917  0.875  0.500- 384 1.54 472 1.54 377 1.54 424 1.55
  96  0.000  0.083  0.333- 522 1.54 378 1.54 474 1.54 561 1.55
  97  0.000  0.083  0.833- 523 1.54 475 1.54 379 1.54 562 1.55
  98  0.000  0.333  0.333- 524 1.54 380 1.54 476 1.54 563 1.55
  99  0.000  0.333  0.833- 525 1.54 381 1.54 477 1.54 564 1.54
 100  1.000  0.583  0.333- 382 1.54 526 1.54 565 1.54 478 1.54
 101  1.000  0.583  0.834- 527 1.54 566 1.54 383 1.54 479 1.54
 102  1.000  0.833  0.333- 528 1.54 384 1.54 480 1.54 567 1.55
 103  1.000  0.833  0.833- 529 1.54 385 1.54 481 1.54 568 1.55
 104  0.167  0.083  0.333- 530 1.54 386 1.54 482 1.54 522 1.55
 105  0.167  0.083  0.833- 531 1.54 387 1.54 483 1.54 523 1.55
 106  0.167  0.333  0.333- 484 1.54 532 1.54 388 1.54 524 1.55
 107  0.167  0.333  0.833- 485 1.54 525 1.54 389 1.54 533 1.55
 108  0.167  0.583  0.334- 390 1.54 526 1.54 486 1.54 534 1.55
 109  0.166  0.584  0.834- 535 1.54 527 1.54 391 1.54 487 1.55
 110  0.167  0.833  0.333- 392 1.54 488 1.54 536 1.54 528 1.54
 111  0.166  0.834  0.834- 537 1.54 489 1.54 393 1.54 529 1.55
 112  0.333  0.083  0.333- 394 1.54 530 1.54 538 1.54 490 1.55
 113  0.333  0.083  0.833- 395 1.54 531 1.54 539 1.54 491 1.55
 114  0.334  0.333  0.333- 492 1.54 396 1.54 540 1.54 532 1.55
 115  0.333  0.334  0.833- 533 1.54 397 1.54 493 1.55 541 1.55
 116  0.333  0.583  0.334- 534 1.54 494 1.54 398 1.55 542 1.55
 117  0.331  0.584  0.835- 576 1.53 399 1.53 535 1.55 495 1.55
 118  0.333  0.833  0.334- 400 1.54 536 1.54 543 1.54 496 1.55
 119  0.333  0.834  0.834- 497 1.54 401 1.54 537 1.54 544 1.55
 120  0.500  0.083  0.333- 538 1.54 545 1.54 402 1.54 498 1.55
 121  0.500  0.083  0.833- 403 1.54 539 1.54 546 1.54 499 1.55
 122  0.500  0.333  0.333- 404 1.54 500 1.54 540 1.54 547 1.54
 123  0.500  0.334  0.832- 541 1.54 548 1.55 405 1.55 501 1.56
 124  0.500  0.583  0.334- 542 1.54 549 1.55 502 1.55 406 1.56
 125  0.499  0.583  0.832- 503 1.54 576 1.55 550 1.55 407 1.56
 126  0.500  0.833  0.334- 543 1.54 408 1.54 551 1.54 504 1.55
 127  0.500  0.833  0.833- 544 1.54 409 1.54 505 1.54 552 1.55
 128  0.667  0.083  0.333- 553 1.54 410 1.54 545 1.54 506 1.54
 129  0.667  0.083  0.833- 411 1.54 546 1.54 554 1.54 507 1.54
 130  0.667  0.333  0.333- 555 1.54 412 1.54 547 1.54 508 1.55
 131  0.667  0.333  0.833- 509 1.54 548 1.54 413 1.54 556 1.54
 132  0.667  0.583  0.333- 414 1.54 549 1.54 510 1.54 557 1.54
 133  0.666  0.583  0.832- 511 1.54 558 1.55 415 1.55 550 1.56
 134  0.667  0.833  0.333- 551 1.54 559 1.54 416 1.54 512 1.55
 135  0.666  0.833  0.833- 560 1.54 417 1.54 513 1.54 552 1.55
 136  0.833  0.083  0.333- 561 1.54 418 1.54 514 1.54 553 1.55
 137  0.833  0.083  0.833- 562 1.54 515 1.54 419 1.54 554 1.55
 138  0.834  0.333  0.333- 563 1.54 420 1.54 516 1.54 555 1.55
 139  0.834  0.333  0.833- 564 1.54 421 1.54 556 1.54 517 1.54
 140  0.833  0.583  0.333- 565 1.54 422 1.54 557 1.54 518 1.54
 141  0.833  0.583  0.833- 423 1.54 566 1.54 558 1.54 519 1.54
 142  0.833  0.833  0.333- 567 1.54 424 1.54 520 1.54 559 1.54
 143  0.833  0.833  0.833- 568 1.54 425 1.54 521 1.54 560 1.55
 144  0.084  0.208  0.333- 482 1.54 426 1.54 524 1.54 474 1.55
 145  0.083  0.208  0.833- 483 1.54 427 1.54 525 1.54 475 1.55
 146  0.083  0.458  0.333- 428 1.54 484 1.54 526 1.54 476 1.55
 147  0.083  0.458  0.834- 477 1.54 429 1.54 485 1.54 527 1.55
 148  0.083  0.708  0.333- 430 1.54 486 1.54 528 1.54 478 1.54
 149  0.083  0.709  0.834- 487 1.54 431 1.54 529 1.54 479 1.54
 150  0.083  0.958  0.333- 488 1.54 432 1.54 522 1.54 480 1.55
 151  0.083  0.958  0.833- 489 1.54 433 1.54 523 1.54 481 1.55
 152  0.250  0.208  0.333- 434 1.54 490 1.54 532 1.54 482 1.55
 153  0.250  0.209  0.833- 435 1.54 483 1.54 491 1.54 533 1.55
 154  0.250  0.459  0.334- 534 1.54 492 1.54 484 1.55 436 1.55
 155  0.250  0.459  0.834- 485 1.54 437 1.54 535 1.54 493 1.55
 156  0.250  0.708  0.334- 438 1.54 486 1.54 536 1.54 494 1.55
 157  0.249  0.709  0.834- 495 1.54 439 1.54 537 1.54 487 1.55
 158  0.250  0.958  0.333- 440 1.54 488 1.54 496 1.54 530 1.54
 159  0.250  0.959  0.833- 497 1.54 441 1.54 531 1.54 489 1.54
 160  0.417  0.208  0.333- 490 1.54 498 1.54 442 1.54 540 1.54
 161  0.417  0.208  0.833- 491 1.54 443 1.54 499 1.55 541 1.55
 162  0.417  0.459  0.334- 542 1.54 500 1.55 492 1.55 444 1.56
 163  0.416  0.459  0.832- 493 1.54 576 1.55 501 1.55 445 1.56
 164  0.417  0.708  0.334- 494 1.54 502 1.55 446 1.55 543 1.55
 165  0.416  0.709  0.834- 544 1.54 447 1.54 495 1.54 503 1.55
 166  0.417  0.958  0.333- 496 1.54 448 1.54 504 1.54 538 1.55
 167  0.417  0.958  0.833- 497 1.54 449 1.54 505 1.54 539 1.55
 168  0.583  0.208  0.333- 506 1.54 450 1.54 498 1.54 547 1.54
 169  0.583  0.208  0.833- 451 1.54 499 1.54 548 1.54 507 1.55
 170  0.584  0.458  0.332- 452 1.53 508 1.54 500 1.54 549 1.54
 171  0.584  0.458  0.833- 501 1.54 550 1.54 453 1.55 509 1.55
 172  0.583  0.708  0.333- 502 1.54 454 1.54 510 1.55 551 1.55
 173  0.583  0.708  0.833- 455 1.54 552 1.54 503 1.55 511 1.55
 174  0.583  0.958  0.333- 456 1.54 504 1.54 512 1.54 545 1.55
 175  0.583  0.958  0.833- 513 1.54 457 1.54 505 1.54 546 1.54
 176  0.750  0.208  0.333- 514 1.54 458 1.54 555 1.54 506 1.54
 177  0.750  0.208  0.833- 459 1.54 556 1.54 515 1.54 507 1.54
 178  0.751  0.458  0.333- 516 1.54 460 1.54 557 1.54 508 1.54
 179  0.750  0.458  0.833- 509 1.54 461 1.54 558 1.54 517 1.54
 180  0.750  0.708  0.333- 518 1.54 462 1.54 559 1.54 510 1.54
 181  0.750  0.708  0.833- 519 1.54 463 1.54 560 1.54 511 1.55
 182  0.750  0.958  0.333- 520 1.54 464 1.54 512 1.54 553 1.54
 183  0.750  0.958  0.833- 521 1.54 465 1.54 554 1.54 513 1.55
 184  0.917  0.208  0.333- 474 1.54 466 1.54 563 1.54 514 1.55
 185  0.917  0.208  0.833- 475 1.54 467 1.54 564 1.54 515 1.54
 186  0.917  0.458  0.333- 476 1.54 468 1.54 516 1.54 565 1.54
 187  0.917  0.458  0.833- 517 1.54 477 1.54 469 1.54 566 1.54
 188  0.917  0.708  0.333- 478 1.54 470 1.54 567 1.54 518 1.54
 189  0.916  0.708  0.833- 479 1.54 471 1.54 568 1.54 519 1.55
 190  0.917  0.958  0.333- 480 1.54 472 1.54 561 1.54 520 1.54
 191  0.917  0.958  0.833- 481 1.54 562 1.54 473 1.54 521 1.55
 192  0.000  0.167  0.167- 331 1.54 474 1.54 287 1.54 370 1.55
 193  0.000  0.167  0.667- 332 1.54 288 1.54 475 1.54 371 1.55
 194  0.000  0.417  0.167- 333 1.54 476 1.54 289 1.54 372 1.55
 195  0.000  0.417  0.667- 373 1.54 334 1.54 477 1.54 290 1.55
 196  1.000  0.667  0.167- 335 1.54 478 1.54 291 1.54 374 1.55
 197  1.000  0.667  0.667- 336 1.54 375 1.54 292 1.54 479 1.54
 198  1.000  0.917  0.167- 337 1.54 480 1.54 285 1.54 376 1.55
 199  1.000  0.917  0.667- 338 1.54 286 1.54 481 1.54 377 1.55
 200  0.167  0.167  0.167- 339 1.54 482 1.54 295 1.54 331 1.54
 201  0.167  0.167  0.667- 483 1.54 340 1.54 296 1.55 332 1.55
 202  0.167  0.417  0.167- 341 1.54 297 1.54 484 1.55 333 1.55
 203  0.167  0.417  0.667- 485 1.54 298 1.54 334 1.54 342 1.55
 204  0.166  0.667  0.167- 343 1.54 486 1.54 299 1.54 335 1.54
 205  0.166  0.667  0.667- 344 1.54 336 1.54 300 1.54 487 1.55
 206  0.167  0.917  0.167- 488 1.54 345 1.54 293 1.54 337 1.55
 207  0.166  0.917  0.667- 346 1.54 294 1.54 489 1.54 338 1.55
 208  0.333  0.167  0.167- 347 1.54 490 1.54 339 1.54 303 1.55
 209  0.334  0.167  0.667- 491 1.54 348 1.54 340 1.55 304 1.55
 210  0.334  0.417  0.167- 305 1.54 349 1.54 341 1.55 492 1.55
 211  0.334  0.418  0.667- 493 1.54 574 1.55 350 1.55 342 1.56
 212  0.333  0.667  0.167- 343 1.54 306 1.54 494 1.55 351 1.55
 213  0.331  0.668  0.667- 307 1.53 575 1.54 344 1.55 495 1.55
 214  0.333  0.917  0.167- 496 1.54 352 1.54 345 1.54 301 1.55
 215  0.333  0.917  0.667- 497 1.54 346 1.54 302 1.54 353 1.55
 216  0.500  0.167  0.166- 347 1.54 354 1.54 498 1.54 310 1.55
 217  0.500  0.167  0.667- 348 1.54 499 1.54 311 1.55 355 1.55
 218  0.500  0.417  0.166- 349 1.54 312 1.54 356 1.55 500 1.55
 219  0.500  0.666  0.167- 351 1.54 358 1.54 313 1.55 502 1.55
 220  0.499  0.666  0.667- 503 1.54 575 1.55 359 1.55 314 1.56
 221  0.500  0.917  0.167- 352 1.54 504 1.54 360 1.54 308 1.55
 222  0.500  0.917  0.667- 353 1.54 505 1.54 361 1.54 309 1.55
 223  0.667  0.167  0.167- 506 1.54 362 1.54 354 1.54 317 1.54
 224  0.667  0.166  0.667- 318 1.54 363 1.54 507 1.54 355 1.54
 225  0.667  0.416  0.166- 508 1.54 364 1.54 319 1.54 356 1.54
 226  0.668  0.416  0.666- 365 1.54 509 1.54 357 1.55 320 1.55
 227  0.667  0.667  0.166- 321 1.54 366 1.54 510 1.55 358 1.55
 228  0.666  0.666  0.667- 511 1.54 367 1.55 322 1.55 359 1.56
 229  0.667  0.917  0.167- 368 1.54 512 1.54 360 1.54 315 1.54
 230  0.667  0.916  0.667- 513 1.54 369 1.54 316 1.55 361 1.55
 231  0.833  0.167  0.167- 370 1.54 514 1.54 325 1.54 362 1.55
 232  0.834  0.166  0.667- 371 1.54 326 1.54 515 1.54 363 1.55
 233  0.834  0.417  0.166- 372 1.54 516 1.54 327 1.54 364 1.54
 234  0.834  0.416  0.667- 373 1.54 365 1.54 517 1.54 328 1.55
 235  0.833  0.667  0.167- 374 1.54 518 1.54 329 1.54 366 1.55
 236  0.833  0.667  0.667- 330 1.54 375 1.54 519 1.54 367 1.54
 237  0.833  0.917  0.167- 376 1.54 520 1.54 323 1.54 368 1.54
 238  0.833  0.917  0.667- 377 1.54 521 1.54 324 1.54 369 1.55
 239  0.083  0.042  0.167- 293 1.54 522 1.54 331 1.54 285 1.54
 240  0.083  0.042  0.667- 294 1.54 523 1.54 332 1.54 286 1.55
 241  0.083  0.292  0.167- 295 1.54 524 1.54 333 1.54 287 1.55
 242  0.084  0.292  0.667- 296 1.54 334 1.54 525 1.54 288 1.55
 243  0.083  0.542  0.167- 526 1.54 297 1.54 289 1.54 335 1.54
 244  0.083  0.542  0.667- 298 1.54 290 1.54 527 1.54 336 1.55
 245  0.083  0.792  0.167- 299 1.54 528 1.54 337 1.54 291 1.55
 246  0.083  0.792  0.667- 300 1.54 338 1.54 529 1.54 292 1.54
 247  0.250  0.042  0.167- 530 1.54 301 1.54 293 1.54 339 1.54
 248  0.250  0.042  0.667- 531 1.54 302 1.54 294 1.55 340 1.55
 249  0.250  0.292  0.167- 303 1.54 341 1.54 532 1.54 295 1.55
 250  0.250  0.292  0.667- 533 1.54 304 1.54 296 1.55 342 1.55
 251  0.250  0.542  0.167- 297 1.54 343 1.54 534 1.55 305 1.55
 252  0.247  0.542  0.667- 298 1.53 574 1.53 535 1.55 344 1.55
 253  0.250  0.792  0.167- 536 1.54 306 1.54 299 1.54 345 1.54
 254  0.249  0.792  0.667- 307 1.54 346 1.54 537 1.54 300 1.54
 255  0.417  0.042  0.167- 301 1.54 538 1.54 308 1.54 347 1.55
 256  0.417  0.042  0.667- 302 1.54 539 1.54 309 1.54 348 1.55
 257  0.417  0.292  0.166- 303 1.54 310 1.54 540 1.55 349 1.55
 258  0.417  0.292  0.667- 541 1.54 311 1.55 304 1.55 350 1.56
 259  0.417  0.542  0.167- 305 1.54 351 1.54 312 1.55 542 1.55
 260  0.417  0.792  0.167- 306 1.54 313 1.54 543 1.55 352 1.55
 261  0.416  0.792  0.667- 307 1.54 544 1.54 353 1.55 314 1.55
 262  0.583  0.042  0.167- 308 1.54 545 1.54 315 1.54 354 1.55
 263  0.583  0.042  0.667- 546 1.54 309 1.54 316 1.54 355 1.54
 264  0.583  0.292  0.166- 310 1.54 547 1.54 317 1.54 356 1.54
 265  0.584  0.291  0.666- 357 1.53 318 1.54 548 1.54 311 1.54
 266  0.583  0.542  0.166- 358 1.54 312 1.54 319 1.55 549 1.55
 267  0.583  0.792  0.167- 313 1.54 321 1.54 551 1.54 360 1.55
 268  0.583  0.791  0.667- 552 1.54 322 1.54 314 1.55 361 1.55
 269  0.750  0.042  0.167- 323 1.54 553 1.54 315 1.54 362 1.54
 270  0.750  0.041  0.667- 324 1.54 363 1.54 554 1.54 316 1.55
 271  0.750  0.292  0.166- 325 1.54 555 1.54 317 1.54 364 1.54
 272  0.751  0.291  0.667- 326 1.54 365 1.54 556 1.54 318 1.54
 273  0.750  0.542  0.166- 557 1.54 327 1.54 366 1.54 319 1.54
 274  0.751  0.541  0.666- 320 1.53 328 1.54 558 1.54 367 1.54
 275  0.750  0.792  0.167- 329 1.54 559 1.54 368 1.54 321 1.55
 276  0.750  0.791  0.667- 560 1.54 330 1.54 369 1.55 322 1.55
 277  0.917  0.042  0.167- 285 1.54 561 1.54 370 1.54 323 1.54
 278  0.917  0.042  0.667- 286 1.54 371 1.54 562 1.54 324 1.55
 279  0.917  0.292  0.167- 287 1.54 563 1.54 372 1.54 325 1.55
 280  0.917  0.292  0.667- 288 1.54 373 1.54 564 1.54 326 1.54
 281  0.917  0.542  0.167- 565 1.54 289 1.54 374 1.54 327 1.54
 282  0.917  0.542  0.667- 328 1.54 290 1.54 566 1.54 375 1.55
 283  0.917  0.792  0.167- 291 1.54 567 1.54 376 1.54 329 1.55
 284  0.916  0.792  0.667- 292 1.54 377 1.54 568 1.54 330 1.55
 285  1.000  0.000  0.125- 277 1.54   1 1.54 198 1.54 239 1.54
 286  1.000  0.000  0.625- 278 1.54 199 1.54   2 1.54 240 1.55
 287  0.000  0.250  0.125- 279 1.54   3 1.54 192 1.54 241 1.55
 288  0.000  0.250  0.625- 280 1.54 193 1.54   4 1.54 242 1.55
 289  0.000  0.500  0.125-   5 1.54 281 1.54 194 1.54 243 1.54
 290  1.000  0.500  0.625- 244 1.54 282 1.54   6 1.54 195 1.55
 291  1.000  0.750  0.125- 283 1.54   7 1.54 196 1.54 245 1.55
 292  1.000  0.750  0.625- 284 1.54 197 1.54   8 1.54 246 1.54
 293  0.167  0.000  0.125- 239 1.54   9 1.54 247 1.54 206 1.54
 294  0.167  0.000  0.625- 240 1.54 207 1.54  10 1.54 248 1.55
 295  0.167  0.250  0.125- 241 1.54  11 1.54 200 1.54 249 1.55
 296  0.167  0.250  0.625-  12 1.54 242 1.54 201 1.55 250 1.55
 297  0.167  0.500  0.125-  13 1.54 243 1.54 202 1.54 251 1.54
 298  0.166  0.500  0.625- 252 1.53 244 1.54  14 1.54 203 1.54
 299  0.166  0.750  0.125- 245 1.54  15 1.54 253 1.54 204 1.54
 300  0.166  0.750  0.625- 246 1.54 205 1.54  16 1.54 254 1.54
 301  0.333  0.000  0.125- 255 1.54  17 1.54 247 1.54 214 1.55
 302  0.333  0.000  0.625-  18 1.54 256 1.54 248 1.54 215 1.54
 303  0.333  0.250  0.125- 257 1.54 249 1.54  19 1.54 208 1.55
 304  0.334  0.250  0.625-  20 1.54 250 1.54 258 1.55 209 1.55
 305  0.333  0.500  0.125- 210 1.54 259 1.54 251 1.55  21 1.55
 306  0.333  0.750  0.125- 260 1.54  23 1.54 253 1.54 212 1.54
 307  0.333  0.751  0.625- 213 1.53 254 1.54  24 1.54 261 1.54
 308  0.500  1.000  0.125- 262 1.54  25 1.54 255 1.54 221 1.55
 309  0.500  1.000  0.625- 263 1.54  26 1.54 256 1.54 222 1.55
 310  0.500  0.250  0.125- 264 1.54 257 1.54  27 1.55 216 1.55
 311  0.500  0.250  0.625- 265 1.54  28 1.54 217 1.55 258 1.55
 312  0.500  0.500  0.125- 266 1.54 218 1.54 259 1.55  29 1.55
 313  0.500  0.750  0.125- 267 1.54 260 1.54  30 1.55 219 1.55
 314  0.499  0.750  0.625-  31 1.54 261 1.55 268 1.55 220 1.56
 315  0.667  1.000  0.125-  32 1.54 262 1.54 269 1.54 229 1.54
 316  0.667  1.000  0.625-  33 1.54 263 1.54 270 1.55 230 1.55
 317  0.667  0.250  0.125-  34 1.54 264 1.54 271 1.54 223 1.54
 318  0.667  0.249  0.625- 265 1.54 224 1.54  35 1.54 272 1.54
 319  0.667  0.500  0.125- 273 1.54 225 1.54  36 1.55 266 1.55
 320  0.669  0.499  0.624- 274 1.53 573 1.53  37 1.55 226 1.55
 321  0.667  0.750  0.125- 267 1.54 227 1.54  38 1.54 275 1.55
 322  0.666  0.750  0.625-  39 1.54 268 1.54 276 1.55 228 1.55
 323  0.833  1.000  0.125- 269 1.54  40 1.54 237 1.54 277 1.54
 324  0.833  1.000  0.625- 270 1.54  41 1.54 238 1.54 278 1.55
 325  0.833  0.250  0.125- 271 1.54  42 1.54 231 1.54 279 1.55
 326  0.834  0.250  0.625- 272 1.54 232 1.54  43 1.54 280 1.54
 327  0.833  0.500  0.125-  44 1.54 273 1.54 281 1.54 233 1.54
 328  0.834  0.500  0.625- 274 1.54 282 1.54  45 1.54 234 1.55
 329  0.833  0.750  0.125- 275 1.54  46 1.54 235 1.54 283 1.55
 330  0.833  0.750  0.625- 276 1.54 236 1.54  47 1.54 284 1.55
 331  0.083  0.125  0.125- 192 1.54  48 1.54 239 1.54 200 1.54
 332  0.083  0.125  0.625- 193 1.54  49 1.54 240 1.54 201 1.55
 333  0.083  0.375  0.125- 194 1.54  50 1.54 241 1.54 202 1.55
 334  0.083  0.375  0.625- 242 1.54 195 1.54  51 1.54 203 1.54
 335  0.083  0.625  0.125- 196 1.54  52 1.54 243 1.54 204 1.54
 336  0.083  0.625  0.625- 197 1.54 205 1.54  53 1.54 244 1.55
 337  0.083  0.875  0.125- 198 1.54  54 1.54 245 1.54 206 1.55
 338  0.083  0.875  0.625- 199 1.54 246 1.54  55 1.54 207 1.55
 339  0.250  0.125  0.125- 200 1.54  56 1.54 208 1.54 247 1.54
 340  0.250  0.125  0.625-  57 1.54 201 1.54 248 1.55 209 1.55
 341  0.250  0.375  0.125- 249 1.54 202 1.54  58 1.55 210 1.55
 342  0.250  0.376  0.625-  59 1.54 203 1.55 250 1.55 211 1.56
 343  0.250  0.625  0.126-  60 1.54 204 1.54 251 1.54 212 1.54
 344  0.249  0.626  0.625- 205 1.54  61 1.54 213 1.55 252 1.55
 345  0.250  0.875  0.125-  62 1.54 206 1.54 214 1.54 253 1.54
 346  0.250  0.875  0.625- 254 1.54 207 1.54  63 1.54 215 1.54
 347  0.417  0.125  0.125- 216 1.54  64 1.54 208 1.54 255 1.55
 348  0.417  0.125  0.625- 217 1.54  65 1.54 209 1.54 256 1.55
 349  0.417  0.375  0.125- 218 1.54 210 1.54 257 1.55  66 1.55
 350  0.417  0.376  0.624-  67 1.54 572 1.55 211 1.55 258 1.56
 351  0.417  0.625  0.125- 219 1.54 259 1.54 212 1.55  68 1.55
 352  0.417  0.875  0.125- 221 1.54 214 1.54  70 1.54 260 1.55
 353  0.417  0.875  0.625- 222 1.54  71 1.54 261 1.55 215 1.55
 354  0.583  0.125  0.125-  72 1.54 216 1.54 223 1.54 262 1.55
 355  0.583  0.125  0.625-  73 1.54 224 1.54 263 1.54 217 1.55
 356  0.583  0.375  0.125- 225 1.54 264 1.54  74 1.55 218 1.55
 357  0.585  0.373  0.624- 265 1.53 572 1.54 226 1.55  75 1.55
 358  0.583  0.625  0.125- 266 1.54 219 1.54 227 1.55  76 1.55
 359  0.583  0.624  0.624-  77 1.54 573 1.55 220 1.55 228 1.56
 360  0.583  0.875  0.125- 221 1.54  78 1.54 229 1.54 267 1.55
 361  0.583  0.875  0.625-  79 1.54 222 1.54 230 1.55 268 1.55
 362  0.750  0.125  0.125-  80 1.54 223 1.54 269 1.54 231 1.55
 363  0.750  0.125  0.625- 224 1.54 270 1.54  81 1.54 232 1.55
 364  0.750  0.375  0.125- 225 1.54  82 1.54 271 1.54 233 1.54
 365  0.751  0.374  0.625- 226 1.54 234 1.54 272 1.54  83 1.55
 366  0.750  0.625  0.125- 227 1.54 273 1.54  84 1.55 235 1.55
 367  0.750  0.625  0.625-  85 1.54 274 1.54 236 1.54 228 1.55
 368  0.750  0.875  0.125- 229 1.54  86 1.54 275 1.54 237 1.54
 369  0.750  0.875  0.625-  87 1.54 230 1.54 276 1.55 238 1.55
 370  0.917  0.125  0.125- 231 1.54  88 1.54 277 1.54 192 1.55
 371  0.917  0.125  0.625- 232 1.54 278 1.54  89 1.54 193 1.55
 372  0.917  0.375  0.125- 233 1.54  90 1.54 279 1.54 194 1.55
 373  0.917  0.375  0.625- 234 1.54 195 1.54 280 1.54  91 1.54
 374  0.917  0.625  0.125- 235 1.54  92 1.54 281 1.54 196 1.55
 375  0.917  0.625  0.625- 197 1.54 236 1.54  93 1.54 282 1.55
 376  0.917  0.875  0.125- 237 1.54  94 1.54 283 1.54 198 1.55
 377  0.917  0.875  0.625- 238 1.54 284 1.54  95 1.54 199 1.55
 378  0.000  0.083  0.458-  89 1.54   2 1.54  96 1.54  49 1.55
 379  0.000  0.083  0.958-  88 1.54   1 1.54  97 1.54  48 1.54
 380  0.000  0.333  0.458-  91 1.54  98 1.54   4 1.54  51 1.55
 381  0.000  0.333  0.958-  90 1.54  99 1.54   3 1.54  50 1.54
 382  1.000  0.583  0.458-  53 1.54  93 1.54 100 1.54   6 1.54
 383  1.000  0.583  0.958-  92 1.54 101 1.54  52 1.54   5 1.54
 384  1.000  0.833  0.458-  95 1.54 102 1.54   8 1.54  55 1.54
 385  1.000  0.833  0.958-  94 1.54 103 1.54   7 1.54  54 1.55
 386  0.167  0.083  0.458-  49 1.54 104 1.54  10 1.54  57 1.55
 387  0.167  0.083  0.958-  48 1.54 105 1.54  56 1.54   9 1.54
 388  0.167  0.333  0.458-  51 1.54 106 1.54  12 1.54  59 1.55
 389  0.167  0.333  0.958-  50 1.54 107 1.54  11 1.54  58 1.54
 390  0.166  0.584  0.458-  61 1.54 108 1.54  14 1.54  53 1.54
 391  0.166  0.584  0.959-  52 1.54 109 1.54  13 1.54  60 1.54
 392  0.167  0.834  0.458- 110 1.54  16 1.54  55 1.54  63 1.54
 393  0.166  0.834  0.959-  54 1.54 111 1.54  15 1.54  62 1.54
 394  0.333  0.083  0.458-  57 1.54 112 1.54  65 1.54  18 1.54
 395  0.333  0.083  0.958- 113 1.54  64 1.54  56 1.54  17 1.55
 396  0.334  0.333  0.458-  20 1.54 114 1.54  67 1.55  59 1.55
 397  0.333  0.334  0.958-  66 1.54 115 1.54  58 1.55  19 1.55
 398  0.333  0.583  0.459-  69 1.54  22 1.54 116 1.55  61 1.55
 399  0.333  0.584  0.959- 117 1.53  60 1.54  68 1.54  21 1.54
 400  0.333  0.833  0.458- 118 1.54  71 1.54  24 1.54  63 1.55
 401  0.333  0.833  0.959-  62 1.54 119 1.54  70 1.54  23 1.54
 402  0.500  0.083  0.458-  73 1.54 120 1.54  65 1.54  26 1.55
 403  0.500  0.083  0.958-  72 1.54 121 1.54  64 1.54  25 1.55
 404  0.500  0.333  0.458-  28 1.54 122 1.54  75 1.54  67 1.55
 405  0.500  0.334  0.958-  74 1.54  66 1.55  27 1.55 123 1.55
 406  0.500  0.583  0.460-  77 1.54 571 1.55  69 1.55 124 1.56
 407  0.499  0.583  0.958-  29 1.54  68 1.55  76 1.55 125 1.56
 408  0.500  0.833  0.458-  79 1.54 126 1.54  71 1.55  31 1.55
 409  0.500  0.833  0.958-  78 1.54  70 1.54 127 1.54  30 1.54
 410  0.667  0.083  0.458-  73 1.54 128 1.54  33 1.54  81 1.54
 411  0.667  0.083  0.958- 129 1.54  80 1.54  72 1.54  32 1.54
 412  0.667  0.333  0.458-  75 1.54 130 1.54  35 1.54  83 1.55
 413  0.667  0.333  0.958- 131 1.54  82 1.54  34 1.54  74 1.55
 414  0.667  0.583  0.458-  85 1.54 132 1.54  37 1.54  77 1.55
 415  0.666  0.583  0.958-  36 1.54  76 1.54  84 1.55 133 1.55
 416  0.667  0.833  0.458- 134 1.54  87 1.54  79 1.54  39 1.55
 417  0.667  0.833  0.958- 135 1.54  78 1.54  38 1.54  86 1.55
 418  0.833  0.083  0.458-  81 1.54 136 1.54  41 1.54  89 1.55
 419  0.833  0.083  0.958-  80 1.54 137 1.54  40 1.54  88 1.55
 420  0.834  0.333  0.458-  83 1.54 138 1.54  43 1.54  91 1.54
 421  0.833  0.333  0.958- 139 1.54  82 1.54  42 1.54  90 1.54
 422  0.834  0.583  0.458-  93 1.54 140 1.54  85 1.54  45 1.54
 423  0.833  0.583  0.958- 141 1.54  84 1.54  44 1.54  92 1.55
 424  0.833  0.833  0.458-  87 1.54 142 1.54  47 1.54  95 1.55
 425  0.833  0.833  0.958-  86 1.54 143 1.54  46 1.54  94 1.55
 426  0.084  0.208  0.458-   4 1.54 144 1.54  49 1.54  12 1.55
 427  0.083  0.208  0.958-   3 1.54 145 1.54  48 1.54  11 1.54
 428  0.083  0.458  0.458- 146 1.54   6 1.54  14 1.54  51 1.54
 429  0.083  0.458  0.959-   5 1.54 147 1.54  13 1.54  50 1.54
 430  0.083  0.708  0.458-   8 1.54 148 1.54  53 1.54  16 1.54
 431  0.083  0.709  0.959-   7 1.54 149 1.54  52 1.54  15 1.55
 432  0.083  0.958  0.458-   2 1.54  55 1.54 150 1.54  10 1.55
 433  0.083  0.958  0.958-   1 1.54 151 1.54  54 1.54   9 1.55
 434  0.250  0.208  0.458-  12 1.54 152 1.54  57 1.54  20 1.55
 435  0.250  0.208  0.958-  19 1.54  11 1.54 153 1.54  56 1.55
 436  0.250  0.459  0.459-  59 1.54  14 1.55 154 1.55  22 1.56
 437  0.250  0.458  0.959- 155 1.54  21 1.54  58 1.54  13 1.54
 438  0.250  0.709  0.459-  61 1.54  24 1.54 156 1.54  16 1.54
 439  0.250  0.709  0.959-  15 1.54 157 1.54  23 1.54  60 1.55
 440  0.250  0.958  0.458- 158 1.54  18 1.54  10 1.54  63 1.54
 441  0.250  0.958  0.958-   9 1.54 159 1.54  17 1.54  62 1.54
 442  0.417  0.208  0.458-  28 1.54 160 1.54  65 1.54  20 1.55
 443  0.417  0.208  0.958-  27 1.54 161 1.54  19 1.54  64 1.55
 444  0.417  0.458  0.460-  67 1.54 571 1.55  22 1.55 162 1.56
 445  0.417  0.459  0.958-  29 1.54  21 1.55  66 1.55 163 1.56
 446  0.417  0.708  0.459-  31 1.54  24 1.55 164 1.55  69 1.56
 447  0.416  0.708  0.959- 165 1.54  68 1.54  30 1.54  23 1.54
 448  0.417  0.958  0.458- 166 1.54  26 1.54  18 1.54  71 1.55
 449  0.417  0.958  0.958-  25 1.54  17 1.54 167 1.54  70 1.55
 450  0.584  0.208  0.458-  73 1.54 168 1.54  35 1.54  28 1.55
 451  0.583  0.208  0.958- 169 1.54  34 1.54  27 1.54  72 1.55
 452  0.585  0.457  0.456- 571 1.53 170 1.53  37 1.55  75 1.55
 453  0.583  0.458  0.958-  36 1.54  74 1.54 171 1.55  29 1.55
 454  0.583  0.708  0.458-  39 1.54 172 1.54  77 1.55  31 1.55
 455  0.583  0.708  0.958-  76 1.54 173 1.54  30 1.54  38 1.55
 456  0.583  0.958  0.458- 174 1.54  33 1.54  26 1.54  79 1.55
 457  0.583  0.958  0.958- 175 1.54  32 1.54  25 1.54  78 1.54
 458  0.750  0.208  0.458-  35 1.54  81 1.54 176 1.54  43 1.55
 459  0.750  0.208  0.958- 177 1.54  80 1.54  34 1.54  42 1.54
 460  0.751  0.458  0.458-  37 1.54  45 1.54 178 1.54  83 1.55
 461  0.750  0.458  0.958- 179 1.54  82 1.54  44 1.54  36 1.55
 462  0.750  0.708  0.458-  85 1.54  47 1.54 180 1.54  39 1.55
 463  0.750  0.708  0.958-  84 1.54  38 1.54 181 1.54  46 1.55
 464  0.750  0.958  0.458-  33 1.54 182 1.54  87 1.54  41 1.55
 465  0.750  0.958  0.958-  32 1.54 183 1.54  86 1.54  40 1.55
 466  0.917  0.208  0.458-  43 1.54  89 1.54 184 1.54   4 1.55
 467  0.917  0.208  0.958-  42 1.54 185 1.54  88 1.54   3 1.55
 468  0.917  0.458  0.458-  45 1.54   6 1.54 186 1.54  91 1.54
 469  0.917  0.458  0.958- 187 1.54  44 1.54   5 1.54  90 1.54
 470  0.917  0.708  0.458-  47 1.54 188 1.54  93 1.54   8 1.54
 471  0.916  0.708  0.958-  46 1.54 189 1.54  92 1.54   7 1.55
 472  0.917  0.958  0.458-  41 1.54  95 1.54 190 1.54   2 1.55
 473  0.917  0.958  0.958-  40 1.54 191 1.54  94 1.54   1 1.55
 474  0.000  0.167  0.292- 184 1.54 192 1.54  96 1.54 144 1.55
 475  0.000  0.167  0.792- 185 1.54  97 1.54 193 1.54 145 1.55
 476  0.000  0.417  0.292- 186 1.54 194 1.54  98 1.54 146 1.55
 477  0.000  0.417  0.792- 147 1.54 187 1.54 195 1.54  99 1.54
 478  1.000  0.667  0.292- 188 1.54 196 1.54 100 1.54 148 1.54
 479  1.000  0.667  0.792- 189 1.54 197 1.54 149 1.54 101 1.54
 480  1.000  0.917  0.292- 190 1.54 198 1.54 102 1.54 150 1.55
 481  1.000  0.917  0.792- 191 1.54 103 1.54 199 1.54 151 1.55
 482  0.167  0.167  0.292- 144 1.54 200 1.54 104 1.54 152 1.55
 483  0.167  0.167  0.792- 145 1.54 201 1.54 153 1.54 105 1.54
 484  0.167  0.417  0.292- 106 1.54 146 1.54 202 1.55 154 1.55
 485  0.167  0.417  0.792- 155 1.54 203 1.54 107 1.54 147 1.54
 486  0.167  0.667  0.292- 204 1.54 148 1.54 156 1.54 108 1.54
 487  0.166  0.667  0.792- 149 1.54 205 1.55 157 1.55 109 1.55
 488  0.167  0.917  0.292- 150 1.54 206 1.54 110 1.54 158 1.54
 489  0.166  0.917  0.792- 151 1.54 111 1.54 207 1.54 159 1.54
 490  0.333  0.167  0.292- 160 1.54 152 1.54 208 1.54 112 1.55
 491  0.333  0.167  0.792- 209 1.54 161 1.54 153 1.54 113 1.55
 492  0.334  0.417  0.292- 114 1.54 154 1.54 162 1.55 210 1.55
 493  0.333  0.417  0.792- 163 1.54 211 1.54 115 1.55 155 1.55
 494  0.333  0.667  0.292- 164 1.54 116 1.54 212 1.55 156 1.55
 495  0.332  0.668  0.793- 157 1.54 165 1.54 213 1.55 117 1.55
 496  0.333  0.917  0.292- 166 1.54 214 1.54 158 1.54 118 1.55
 497  0.333  0.917  0.792- 167 1.54 159 1.54 215 1.54 119 1.54
 498  0.500  0.167  0.291- 168 1.54 160 1.54 216 1.54 120 1.55
 499  0.500  0.167  0.792- 217 1.54 169 1.54 161 1.55 121 1.55
 500  0.500  0.417  0.292- 170 1.54 122 1.54 218 1.55 162 1.55
 501  0.500  0.418  0.790- 171 1.54 572 1.55 163 1.55 123 1.56
 502  0.500  0.666  0.292- 172 1.54 164 1.55 124 1.55 219 1.55
 503  0.500  0.667  0.792- 125 1.54 220 1.54 173 1.55 165 1.55
 504  0.500  0.917  0.292- 174 1.54 221 1.54 166 1.54 126 1.55
 505  0.500  0.917  0.792- 222 1.54 175 1.54 167 1.54 127 1.54
 506  0.667  0.167  0.292- 223 1.54 168 1.54 128 1.54 176 1.54
 507  0.667  0.167  0.792- 224 1.54 129 1.54 177 1.54 169 1.55
 508  0.667  0.416  0.291- 170 1.54 225 1.54 178 1.54 130 1.55
 509  0.667  0.416  0.791- 179 1.54 131 1.54 226 1.54 171 1.55
 510  0.667  0.667  0.291- 132 1.54 180 1.54 172 1.55 227 1.55
 511  0.666  0.666  0.791- 228 1.54 133 1.54 173 1.55 181 1.55
 512  0.667  0.917  0.292- 174 1.54 229 1.54 182 1.54 134 1.55
 513  0.667  0.917  0.792- 230 1.54 175 1.54 135 1.54 183 1.55
 514  0.834  0.167  0.292- 176 1.54 231 1.54 136 1.54 184 1.55
 515  0.833  0.167  0.792- 177 1.54 137 1.54 232 1.54 185 1.54
 516  0.834  0.416  0.291- 178 1.54 233 1.54 186 1.54 138 1.54
 517  0.834  0.416  0.792- 187 1.54 139 1.54 234 1.54 179 1.54
 518  0.833  0.667  0.291- 180 1.54 235 1.54 140 1.54 188 1.54
 519  0.833  0.667  0.792- 181 1.54 236 1.54 141 1.54 189 1.55
 520  0.833  0.917  0.292- 182 1.54 237 1.54 142 1.54 190 1.54
 521  0.833  0.917  0.792- 183 1.54 238 1.54 143 1.54 191 1.55
 522  0.083  0.042  0.292-  96 1.54 239 1.54 150 1.54 104 1.55
 523  0.083  0.042  0.792-  97 1.54 240 1.54 151 1.54 105 1.55
 524  0.084  0.292  0.292-  98 1.54 241 1.54 144 1.54 106 1.55
 525  0.083  0.292  0.792-  99 1.54 242 1.54 145 1.54 107 1.54
 526  0.083  0.542  0.292- 243 1.54 100 1.54 108 1.54 146 1.54
 527  0.083  0.542  0.792- 101 1.54 109 1.54 244 1.54 147 1.55
 528  0.083  0.792  0.292- 102 1.54 245 1.54 148 1.54 110 1.54
 529  0.083  0.792  0.792- 103 1.54 149 1.54 246 1.54 111 1.55
 530  0.250  0.042  0.292- 247 1.54 104 1.54 112 1.54 158 1.54
 531  0.250  0.042  0.792- 105 1.54 248 1.54 113 1.54 159 1.54
 532  0.250  0.292  0.292- 106 1.54 249 1.54 152 1.54 114 1.55
 533  0.250  0.292  0.792- 250 1.54 115 1.54 107 1.55 153 1.55
 534  0.250  0.542  0.292- 154 1.54 116 1.54 251 1.55 108 1.55
 535  0.249  0.542  0.793- 109 1.54 155 1.54 117 1.55 252 1.55
 536  0.250  0.792  0.292- 253 1.54 118 1.54 156 1.54 110 1.54
 537  0.250  0.792  0.792- 111 1.54 157 1.54 119 1.54 254 1.54
 538  0.417  0.042  0.292- 255 1.54 120 1.54 112 1.54 166 1.55
 539  0.417  0.042  0.792- 256 1.54 121 1.54 113 1.54 167 1.55
 540  0.417  0.292  0.292- 122 1.54 160 1.54 114 1.54 257 1.55
 541  0.417  0.292  0.791- 123 1.54 258 1.54 115 1.55 161 1.55
 542  0.417  0.542  0.292- 124 1.54 162 1.54 116 1.55 259 1.55
 543  0.417  0.792  0.292- 126 1.54 118 1.54 260 1.55 164 1.55
 544  0.416  0.792  0.792- 165 1.54 261 1.54 127 1.54 119 1.55
 545  0.583  0.042  0.292- 262 1.54 120 1.54 128 1.54 174 1.55
 546  0.583  0.042  0.792- 263 1.54 129 1.54 121 1.54 175 1.54
 547  0.584  0.292  0.291- 264 1.54 130 1.54 168 1.54 122 1.54
 548  0.584  0.292  0.791- 131 1.54 265 1.54 169 1.54 123 1.55
 549  0.584  0.541  0.292- 132 1.54 170 1.54 266 1.55 124 1.55
 550  0.583  0.541  0.790- 171 1.54 573 1.55 125 1.55 133 1.56
 551  0.583  0.792  0.292- 134 1.54 267 1.54 126 1.54 172 1.55
 552  0.583  0.792  0.792- 268 1.54 173 1.54 135 1.55 127 1.55
 553  0.750  0.042  0.292- 128 1.54 269 1.54 182 1.54 136 1.55
 554  0.750  0.042  0.792- 270 1.54 129 1.54 183 1.54 137 1.55
 555  0.750  0.291  0.291- 130 1.54 271 1.54 176 1.54 138 1.55
 556  0.750  0.291  0.792- 177 1.54 272 1.54 139 1.54 131 1.54
 557  0.750  0.542  0.291- 273 1.54 140 1.54 132 1.54 178 1.54
 558  0.750  0.541  0.791- 274 1.54 179 1.54 141 1.54 133 1.55
 559  0.750  0.792  0.292- 275 1.54 134 1.54 180 1.54 142 1.54
 560  0.750  0.792  0.792- 276 1.54 135 1.54 181 1.54 143 1.55
 561  0.917  0.042  0.292- 136 1.54 277 1.54 190 1.54  96 1.55
 562  0.917  0.042  0.792- 137 1.54 191 1.54 278 1.54  97 1.55
 563  0.917  0.292  0.292- 138 1.54 279 1.54 184 1.54  98 1.55
 564  0.917  0.292  0.792- 139 1.54 280 1.54 185 1.54  99 1.54
 565  0.917  0.542  0.292- 281 1.54 140 1.54 100 1.54 186 1.54
 566  0.917  0.542  0.792- 101 1.54 141 1.54 282 1.54 187 1.54
 567  0.917  0.792  0.292- 142 1.54 283 1.54 188 1.54 102 1.55
 568  0.916  0.792  0.792- 143 1.54 284 1.54 189 1.54 103 1.55
 569  0.404  0.548  0.673- 576 1.48 574 1.48 575 1.48
 570  0.513  0.493  0.618- 571 1.48 573 1.48 572 1.48
 571  0.503  0.498  0.499- 570 1.48 452 1.53 444 1.55 406 1.55
 572  0.503  0.416  0.665- 570 1.48 357 1.54 350 1.55 501 1.55
 573  0.586  0.540  0.665- 570 1.48 320 1.53 359 1.55 550 1.55
 574  0.331  0.502  0.627- 569 1.48 252 1.53 211 1.55  22 1.55
 575  0.414  0.626  0.627- 569 1.48 213 1.54 220 1.55  69 1.55
 576  0.414  0.543  0.792- 569 1.48 117 1.53 125 1.55 163 1.55
 
  LATTYP: Found a simple orthorhombic cell.
 ALAT       =    12.3557996750
 B/A-ratio  =     1.2247365795
 C/A-ratio  =     1.4142023056
  
  Lattice vectors:
  
 A1 = (   0.0000000000,   0.0000000000,  12.3557996750)
 A2 = (  15.1325998306,   0.0000000000,   0.0000000000)
 A3 = (   0.0000000000,  17.4736003876,   0.0000000000)


Analysis of symmetry for initial positions (statically):
=====================================================================
 Subroutine PRICEL returns:
 Original cell was already a primitive cell.
 

 Routine SETGRP: Setting up the symmetry group for a 
 simple orthorhombic supercell.


 Subroutine GETGRP returns: Found  2 space group operations
 (whereof  1 operations were pure point group operations)
 out of a pool of  8 trial point group operations.


The static configuration has the point symmetry C_1 .
 The point group associated with its full space group is S_2 .


Analysis of symmetry for dynamics (positions and initial velocities):
=====================================================================
 Subroutine PRICEL returns:
 Original cell was already a primitive cell.
 

 Routine SETGRP: Setting up the symmetry group for a 
 simple orthorhombic supercell.


 Subroutine GETGRP returns: Found  2 space group operations
 (whereof  1 operations were pure point group operations)
 out of a pool of  8 trial point group operations.


The dynamic configuration has the point symmetry C_1 .
 The point group associated with its full space group is S_2 .


Analysis of structural, dynamic, and magnetic symmetry:
=====================================================================
 Subroutine PRICEL returns:
 Original cell was already a primitive cell.
 

 Routine SETGRP: Setting up the symmetry group for a 
 simple orthorhombic supercell.


 Subroutine GETGRP returns: Found  2 space group operations
 (whereof  1 operations were pure point group operations)
 out of a pool of  8 trial point group operations.


The overall configuration has the point symmetry C_1 .
 The point group associated with its full space group is S_2 .


 Subroutine INISYM returns: Found  2 space group operations
 (whereof  1 operations are pure point group operations),
 and found     1 'primitive' translations


----------------------------------------------------------------------------------------

                                     Primitive cell                                     

  volume of cell :    3267.1329

  direct lattice vectors                    reciprocal lattice vectors
    15.132599831  0.000000000  0.000000000     0.066082498  0.000000000  0.000000000
     0.000000000 17.473600388  0.000000000     0.000000000  0.057229190  0.000000000
     0.000000000  0.000000000 12.355799675     0.000000000  0.000000000  0.080933653

  length of vectors
    15.132599831 17.473600388 12.355799675     0.066082498  0.057229190  0.080933653

  position of ions in fractional coordinates (direct lattice)
     0.999965525  0.000047909  0.000040381
     0.000012103  0.000026656  0.500006897
     0.000104086  0.249980694  0.000036654
     0.000229821  0.249949352  0.499998272
     0.999908967  0.500048739  0.000112601
     0.000144862  0.500022325  0.500016587
     0.999759735  0.750119574  0.000110092
     0.999815151  0.750106998  0.500046003
     0.166637097  0.000120816  0.000065840
     0.166669987  0.000123418  0.500042768
     0.166731530  0.250083888  0.000090284
     0.166893558  0.250132828  0.500101557
     0.166454276  0.500153750  0.000318782
     0.166578487  0.500230115  0.500315362
     0.166324561  0.750247200  0.000335954
     0.166377953  0.750232040  0.500160263
     0.333324721  0.000087659  0.000043221
     0.333328256  0.000052847  0.500038527
     0.333376369  0.250148827  0.999927940
     0.333554812  0.250144571  0.500006436
     0.333076628  0.500220708  0.000159366
     0.334037009  0.500822403  0.501330489
     0.333089490  0.750149941  0.000312299
     0.333028114  0.750090497  0.500327439
     0.499987413  0.999998791  0.000036234
     0.499998051  0.999934189  0.500026647
     0.500044008  0.250135726  0.999622100
     0.500251672  0.249839859  0.499826237
     0.499897374  0.500047677  0.999604859
     0.499853130  0.749961254  0.000163119
     0.499861335  0.749712418  0.500257486
     0.666629530  0.999935674  0.000038248
     0.666653061  0.999818700  0.500026048
     0.666755157  0.249923255  0.999866741
     0.667122911  0.249541218  0.499726941
     0.666630224  0.499908518  0.999682430
     0.667995389  0.499577077  0.499099602
     0.666483176  0.749911702  0.999943671
     0.666559325  0.749759822  0.500006384
     0.833281139  0.999959334  0.000028943
     0.833336874  0.999870086  0.500015717
     0.833452572  0.249898116  0.999926186
     0.833654256  0.249758405  0.499873858
     0.833332193  0.499945734  0.999883814
     0.833877405  0.499837822  0.499720294
     0.833123109  0.749990987  0.999961083
     0.833226064  0.749955642  0.499939291
     0.083380544  0.125044521  0.000028416
     0.083475776  0.125052496  0.500016628
     0.083382599  0.375060940  0.000165887
     0.083546434  0.375044151  0.500095402
     0.082953922  0.625186442  0.000352046
     0.083079729  0.625172647  0.500132591
     0.083163537  0.875155725  0.000111744
     0.083191693  0.875138739  0.500045932
     0.250031899  0.125101780  0.999986550
     0.250130042  0.125116767  0.500003052
     0.250004612  0.375141628  0.000171648
     0.250319172  0.375264532  0.500259443
     0.249371206  0.625345877  0.000760106
     0.249526663  0.625294667  0.500280368
     0.249857525  0.875143767  0.000154071
     0.249851463  0.875138971  0.500095164
     0.416695415  0.125090538  0.999911782
     0.416762841  0.125007103  0.499943318
     0.416658892  0.375275999  0.999433914
     0.417103510  0.374976349  0.499931887
     0.416325929  0.625118315  0.000154993
     0.416219663  0.624112650  0.501333862
     0.416580258  0.875022428  0.000170518
     0.416586682  0.874967004  0.500120544
     0.583346247  0.124987677  0.999908329
     0.583454920  0.124830836  0.499899215
     0.583401880  0.375007256  0.999628435
     0.584375663  0.374123207  0.499111113
     0.583010397  0.624869974  0.999428184
     0.583528022  0.624669491  0.499918746
     0.583244703  0.874940511  0.000065203
     0.583233430  0.874796027  0.500077799
     0.750026372  0.124916070  0.999955252
     0.750173219  0.124731275  0.499920214
     0.750153449  0.374875956  0.999736525
     0.750626831  0.374623470  0.499630075
     0.749768225  0.624897700  0.999637044
     0.750161351  0.624859159  0.499782549
     0.749874376  0.874946560  0.999997063
     0.749896576  0.874839400  0.500003387
     0.916712929  0.124946339  0.000008116
     0.916809563  0.124890735  0.499980132
     0.916777845  0.374935176  0.999947536
     0.917024998  0.374868976  0.499887978
     0.916450060  0.625040970  0.000022762
     0.916638834  0.625016393  0.499936206
     0.916514155  0.875043376  0.000033781
     0.916558327  0.875004722  0.499991042
     0.000086619  0.083311585  0.333335242
     0.000031123  0.083358128  0.833365751
     0.000235199  0.333285708  0.333316495
     0.000115333  0.333318491  0.833401321
     0.999988688  0.583373952  0.333367835
     0.999631794  0.583458025  0.833533725
     0.999905589  0.833403805  0.333358948
     0.999764073  0.833470634  0.833415671
     0.166743672  0.083390869  0.333329731
     0.166707866  0.083478477  0.833329403
     0.166909634  0.333427476  0.333482244
     0.166699583  0.333460497  0.833459135
     0.166593751  0.583445860  0.333527527
     0.165743489  0.583700243  0.833963665
     0.166569439  0.833436822  0.333428039
     0.166321053  0.833663264  0.833539285
     0.333376587  0.083370454  0.333307642
     0.333367413  0.083470304  0.833297395
     0.333560246  0.333421059  0.333434723
     0.333381163  0.333555099  0.833272864
     0.333334919  0.583357026  0.333638676
     0.331298596  0.584401234  0.835267357
     0.333266681  0.833318329  0.333504667
     0.333071126  0.833545788  0.833547575
     0.500038857  0.083288919  0.333262905
     0.500025270  0.083339130  0.833300865
     0.500250895  0.333215795  0.333063009
     0.500121313  0.333615933  0.832444942
     0.500095227  0.582841986  0.333930136
     0.499171713  0.583390323  0.831763467
     0.499958507  0.833179330  0.333504417
     0.499850048  0.833324196  0.833451816
     0.666721546  0.083189138  0.333256346
     0.666691551  0.083217863  0.833313899
     0.667117440  0.333001464  0.332811475
     0.666930754  0.333133191  0.833151707
     0.666861958  0.583170872  0.333040135
     0.666350190  0.583065971  0.832463409
     0.666616655  0.833183966  0.333341997
     0.666491559  0.833204053  0.833308347
     0.833406045  0.083202798  0.333291947
     0.833354194  0.083233425  0.833341399
     0.833652347  0.333146899  0.333099122
     0.833542471  0.333176505  0.833230992
     0.833430869  0.583261728  0.333136855
     0.833187476  0.583299127  0.833266610
     0.833246516  0.833295139  0.333303318
     0.833120169  0.833297369  0.833318397
     0.083524220  0.208344395  0.333379075
     0.083438622  0.208384222  0.833393191
     0.083493628  0.458383695  0.333474369
     0.083158535  0.458448918  0.833560638
     0.083179256  0.708457315  0.333491120
     0.082865260  0.708605440  0.833601621
     0.083326082  0.958397157  0.333356808
     0.083227417  0.958497521  0.833403608
     0.250152310  0.208415445  0.333382424
     0.250095987  0.208514075  0.833344928
     0.250349769  0.458564652  0.333901726
     0.249582669  0.458601885  0.833706118
     0.249866931  0.708428582  0.333568410
     0.249218803  0.708943337  0.833955864
     0.249991996  0.958396758  0.333396368
     0.249915611  0.958519700  0.833434701
     0.416781050  0.208351199  0.333202683
     0.416773913  0.208489187  0.833191848
     0.417213228  0.458501448  0.333939932
     0.416206553  0.458932288  0.831780586
     0.416596275  0.708017140  0.333916226
     0.416193703  0.708594895  0.833675846
     0.416652846  0.958302660  0.333397403
     0.416595376  0.958387627  0.833412882
     0.583498858  0.208198753  0.333141354
     0.583441186  0.208273607  0.833238821
     0.584148091  0.457904192  0.332198971
     0.583551774  0.458191311  0.832929521
     0.583328300  0.708128179  0.333441312
     0.583093194  0.708210001  0.833279011
     0.583317355  0.958211463  0.333395855
     0.583273880  0.958272124  0.833379423
     0.750240573  0.208110999  0.333154458
     0.750160389  0.208163453  0.833291497
     0.750509912  0.458103497  0.332810220
     0.750225472  0.458163356  0.833183907
     0.749968286  0.708232600  0.333207230
     0.749753631  0.708194030  0.833211447
     0.749979080  0.958216217  0.333365562
     0.749905593  0.958233985  0.833367705
     0.916854005  0.208219389  0.333274066
     0.916787368  0.208249878  0.833346196
     0.916922464  0.458251141  0.333175399
     0.916709305  0.458290505  0.833345251
     0.916556170  0.708348701  0.333290689
     0.916388368  0.708401707  0.833384290
     0.916633805  0.958310034  0.333328490
     0.916557815  0.958343395  0.833363534
     0.000101767  0.166639132  0.166657431
     0.000147877  0.166650562  0.666687153
     0.000127818  0.416657873  0.166694232
     0.000166533  0.416660224  0.666730620
     0.999823853  0.666750946  0.166772455
     0.999596405  0.666847830  0.666764077
     0.999930094  0.916724244  0.166697785
     0.999851137  0.916778448  0.666698159
     0.166745014  0.166713785  0.166694358
     0.166854317  0.166871936  0.666703027
     0.166805444  0.416766129  0.166948251
     0.166600456  0.416934509  0.666915267
     0.166430745  0.666816553  0.167027375
     0.165731281  0.667203492  0.666968588
     0.166617861  0.916753022  0.166748168
     0.166467080  0.916958098  0.666748566
     0.333394499  0.166745125  0.166604057
     0.333565757  0.166941883  0.666659676
     0.333522231  0.416817142  0.166909866
     0.334040499  0.417833227  0.667327863
     0.333216370  0.666714875  0.166987784
     0.331299557  0.668282013  0.667481109
     0.333314814  0.916686729  0.166781389
     0.333201324  0.916807492  0.666786403
     0.500036956  0.166696497  0.166474273
     0.500109547  0.166619407  0.666578686
     0.500070584  0.416675694  0.166402059
     0.499920552  0.666484528  0.166902594
     0.499176469  0.665606440  0.667312446
     0.499974156  0.916606390  0.166765684
     0.499891785  0.916590372  0.666740667
     0.666729305  0.166583778  0.166543598
     0.666956679  0.166295920  0.666578730
     0.666947059  0.416498547  0.166119778
     0.668004336  0.415936888  0.666386179
     0.666551227  0.666558201  0.166419014
     0.666342668  0.665983052  0.666621870
     0.666621784  0.916591508  0.166691591
     0.666517308  0.916427371  0.666702318
     0.833435398  0.166564823  0.166598671
     0.833558446  0.166435388  0.666633457
     0.833551729  0.416553972  0.166395040
     0.833912161  0.416424897  0.666526269
     0.833208440  0.666635076  0.166505845
     0.833180435  0.666640738  0.666595210
     0.833267416  0.916642975  0.166673922
     0.833199346  0.916544156  0.666680336
     0.083354890  0.041703317  0.166678669
     0.083353232  0.041812242  0.666689639
     0.083485899  0.291679259  0.166740070
     0.083516230  0.291729866  0.666747067
     0.083269577  0.541740386  0.166838926
     0.082649198  0.541891358  0.666911707
     0.083181764  0.791781465  0.166798124
     0.082941746  0.791961655  0.666783386
     0.250025766  0.041727357  0.166667003
     0.250052384  0.041856815  0.666676573
     0.250128592  0.291753210  0.166738733
     0.250368694  0.292124772  0.666769545
     0.249934809  0.541762007  0.166940033
     0.247471833  0.542463851  0.667481151
     0.249886791  0.791749055  0.166853105
     0.249364175  0.792267833  0.666920232
     0.416671863  0.041687048  0.166647833
     0.416676835  0.041710267  0.666673502
     0.416740924  0.291759947  0.166426290
     0.417221648  0.292160796  0.666625158
     0.416684551  0.541663459  0.166824339
     0.416599250  0.791578477  0.166946620
     0.416308622  0.791717291  0.666892540
     0.583324800  0.041617408  0.166646394
     0.583341215  0.041540457  0.666664194
     0.583456255  0.291615168  0.166380553
     0.584163395  0.290820441  0.666409311
     0.583334927  0.541597529  0.166416744
     0.583268924  0.791556037  0.166751605
     0.583014640  0.791206800  0.666767109
     0.750007254  0.041583238  0.166636523
     0.750034983  0.041437975  0.666662270
     0.750198736  0.291517033  0.166404176
     0.750525528  0.291238855  0.666521488
     0.750054500  0.541581784  0.166391773
     0.751089435  0.541412956  0.666397882
     0.749892563  0.791608753  0.166606624
     0.749759965  0.791392653  0.666642109
     0.916672517  0.041634610  0.166666705
     0.916678826  0.041607503  0.666678628
     0.916820761  0.291588433  0.166599600
     0.916966910  0.291517884  0.666631844
     0.916662016  0.541661870  0.166610927
     0.916777667  0.541642773  0.666626226
     0.916526537  0.791701535  0.166668405
     0.916435844  0.791714946  0.666681847
     0.999994170  0.000032889  0.124998298
     0.999987861  0.000059996  0.624986390
     0.000140150  0.249965986  0.124996598
     0.000230843  0.249952575  0.624983171
     0.000004671  0.500005651  0.125054076
     0.999889020  0.500024748  0.625038792
     0.999845926  0.750079058  0.125065403
     0.999699777  0.750149607  0.625033174
     0.166659418  0.000084261  0.125028480
     0.166631689  0.000229524  0.625002748
     0.166774109  0.250058768  0.125058379
     0.166906707  0.250274868  0.625022909
     0.166612172  0.500085737  0.125273230
     0.165577237  0.500254565  0.625267136
     0.166467936  0.750150458  0.125260827
     0.166141144  0.750428636  0.625143530
     0.333341856  0.000050091  0.125018609
     0.333325441  0.000127042  0.625000824
     0.333397732  0.250111484  0.124913398
     0.333652016  0.250460721  0.624897909
     0.333331729  0.500069992  0.125248259
     0.333210401  0.750052323  0.125284450
     0.332503261  0.750847050  0.625255707
     0.499994794  0.999980451  0.125017170
     0.499989822  0.999957232  0.624991516
     0.500067407  0.250089044  0.124718383
     0.500358035  0.249950230  0.624772478
     0.499982106  0.500004062  0.124840664
     0.499925733  0.749907544  0.125238713
     0.499445009  0.749506695  0.625039860
     0.666640921  0.999940142  0.124998000
     0.666614303  0.999810684  0.624988445
     0.666779896  0.249918466  0.124811898
     0.667302512  0.249399688  0.624744786
     0.666731878  0.499905514  0.124724970
     0.669194854  0.499203670  0.624183867
     0.666538095  0.749914281  0.124926270
     0.666297993  0.749542719  0.624895473
     0.833311759  0.999964182  0.124986334
     0.833313417  0.999855257  0.624975379
     0.833484885  0.249886056  0.124866879
     0.833724903  0.249705866  0.624881632
     0.833397072  0.499927135  0.124826077
     0.834017451  0.499776163  0.624753311
     0.833180750  0.749988232  0.124924933
     0.833150419  0.749937625  0.624917951
     0.083399233  0.125024546  0.124991081
     0.083467303  0.125123365  0.624984682
     0.083458209  0.375032445  0.125159158
     0.083486214  0.375026783  0.625069808
     0.083114920  0.625113549  0.125269963
     0.082754488  0.625242624  0.625138749
     0.083231251  0.875102683  0.125066332
     0.083108203  0.875232118  0.625031561
     0.250044903  0.125076013  0.124973412
     0.250149379  0.125240150  0.624962700
     0.250115460  0.375109320  0.125245989
     0.250324019  0.375684469  0.625043148
     0.249719628  0.625168974  0.125545225
     0.248662351  0.625730633  0.625278839
     0.249937382  0.875083728  0.125121405
     0.249710008  0.875371586  0.625086288
     0.416692501  0.125061131  0.124899319
     0.416774872  0.125077149  0.624924351
     0.416746105  0.375182993  0.124762409
     0.417490188  0.376061081  0.624352572
     0.416596073  0.624991827  0.125262944
     0.416629701  0.874971009  0.125190730
     0.416557110  0.875048099  0.625086332
     0.583351842  0.124980792  0.124883614
     0.583465332  0.124860029  0.624878615
     0.583450286  0.374952646  0.124677219
     0.585367099  0.373385508  0.624183909
     0.583144425  0.624850379  0.124755137
     0.582626157  0.623834294  0.624337155
     0.583272157  0.874922381  0.125060946
     0.583100899  0.874725623  0.625005342
     0.750048811  0.124914499  0.124916835
     0.750199592  0.124709423  0.624916452
     0.750235927  0.374850968  0.124637628
     0.750935391  0.374464029  0.624696430
     0.749861228  0.624901392  0.124716752
     0.750066216  0.624733012  0.624749751
     0.749921658  0.874953721  0.124970645
     0.749812355  0.874795570  0.624961991
     0.916736593  0.124943277  0.124967218
     0.916815550  0.124889073  0.624966859
     0.916842834  0.374916575  0.124892548
     0.917070282  0.374819691  0.624900941
     0.916538869  0.625009648  0.124970771
     0.916500154  0.625007297  0.624934398
     0.916564920  0.875028374  0.125007572
     0.916518810  0.875016944  0.624977865
     0.000108872  0.083321585  0.458306520
     0.000032882  0.083354946  0.958341594
     0.000278319  0.333263281  0.458285764
     0.000110517  0.333316287  0.958379395
     0.999957382  0.583374453  0.458324803
     0.999744223  0.583413817  0.958494685
     0.999879319  0.833415095  0.458323858
     0.999812682  0.833445584  0.958396018
     0.166761079  0.083430995  0.458302349
     0.166687592  0.083448763  0.958304522
     0.166913041  0.333470958  0.458458607
     0.166698386  0.333432388  0.958462854
     0.166441200  0.583501602  0.458486147
     0.166156760  0.583561461  0.958859864
     0.166506283  0.833501520  0.458378557
     0.166426099  0.833553974  0.958515626
     0.333392776  0.083392856  0.458290631
     0.333349301  0.083453517  0.958274229
     0.333573462  0.333454987  0.458391043
     0.333338356  0.333536809  0.958228772
     0.333114882  0.583473647  0.458740533
     0.332518565  0.583760766  0.959471113
     0.333225470  0.833391366  0.458431233
     0.333167798  0.833466220  0.958528730
     0.500071281  0.083277353  0.458257172
     0.500013811  0.083362320  0.958272681
     0.500472954  0.333070093  0.457994208
     0.500070382  0.333647848  0.957753858
     0.500460104  0.582732670  0.459889468
     0.499453429  0.583163510  0.957730152
     0.499892744  0.833175786  0.458478206
     0.499885607  0.833313774  0.958467401
     0.666751076  0.083145280  0.458235353
     0.666674691  0.083268222  0.958273716
     0.667447884  0.332721651  0.457714190
     0.666799756  0.333236406  0.958101674
     0.667084018  0.583063073  0.457963936
     0.666316918  0.583100306  0.957768358
     0.666570700  0.833150898  0.458325126
     0.666514377  0.833249528  0.958287660
     0.833439232  0.083167459  0.458266446
     0.833340567  0.083267823  0.958313276
     0.833801389  0.333059548  0.458068433
     0.833487393  0.333207673  0.958178964
     0.833508114  0.583216040  0.458109416
     0.833173021  0.583281263  0.958195715
     0.833228027  0.833280751  0.458276863
     0.833142429  0.833320578  0.958291009
     0.083546480  0.208367604  0.458351657
     0.083420133  0.208369834  0.958366766
     0.083479173  0.458365831  0.458403444
     0.083235780  0.458403230  0.958533229
     0.083124178  0.708488483  0.458439062
     0.083014302  0.708518089  0.958570962
     0.083312455  0.958431555  0.458328655
     0.083260604  0.958462182  0.958378137
     0.250175128  0.208460920  0.458361707
     0.250050032  0.208481007  0.958328087
     0.250316497  0.458598987  0.459206645
     0.249804729  0.458494086  0.958629949
     0.249735933  0.708531797  0.458518347
     0.249549247  0.708663524  0.958858609
     0.249975136  0.958447117  0.458356155
     0.249945141  0.958475842  0.958413738
     0.416816609  0.208340777  0.458218238
     0.416708150  0.208485643  0.958165667
     0.417494944  0.458274635  0.459906587
     0.416571430  0.458822972  0.957739948
     0.416545344  0.708049055  0.459225112
     0.416415762  0.708449193  0.958607075
     0.416641387  0.958325850  0.458369189
     0.416627800  0.958376061  0.958407179
     0.583595530  0.208119185  0.458122479
     0.583399975  0.208346644  0.958165417
     0.585368060  0.457263724  0.456402697
     0.583331737  0.458307932  0.958031408
     0.583285493  0.708109889  0.458397190
     0.583106410  0.708243929  0.958235361
     0.583299243  0.958194676  0.458372659
     0.583290069  0.958294526  0.958362442
     0.750345619  0.208001709  0.458130769
     0.750097233  0.208228151  0.958242045
     0.750923183  0.457964715  0.457706389
     0.750072921  0.458219098  0.958142557
     0.749967089  0.708204491  0.458210919
     0.749757038  0.708237512  0.958187840
     0.749958806  0.958186503  0.458340651
     0.749923000  0.958274111  0.958340353
     0.916902614  0.208194339  0.458254383
     0.916761098  0.208261168  0.958311136
     0.917034893  0.458206933  0.458136329
     0.916677999  0.458291006  0.958302249
     0.916551354  0.708346497  0.458268733
     0.916431488  0.708379280  0.958353589
     0.916635564  0.958306852  0.458304303
     0.916580068  0.958353395  0.958334842
     0.000152532  0.166624130  0.291631207
     0.000108360  0.166662784  0.791673916
     0.000216627  0.416626551  0.291642226
     0.000027853  0.416651128  0.791728752
     0.999888842  0.666732345  0.291717452
     0.999641689  0.666798545  0.791776980
     0.999953758  0.916721182  0.291656872
     0.999857124  0.916776786  0.791684826
     0.166792296  0.166720946  0.291667925
     0.166770096  0.166828106  0.791661571
     0.166898447  0.416769821  0.292027944
     0.166505321  0.416808362  0.791882409
     0.166513223  0.666791565  0.291928463
     0.166039841  0.667044051  0.792034883
     0.166640300  0.916751451  0.291709736
     0.166493453  0.916936246  0.791744744
     0.333421953  0.166726995  0.291599785
     0.333433226  0.166871479  0.791587159
     0.333656259  0.416797547  0.292236804
     0.333138634  0.416998030  0.791746212
     0.333264776  0.666660265  0.292036553
     0.332290993  0.667544314  0.792553845
     0.333320409  0.916679844  0.291756659
     0.333211736  0.916836685  0.791765743
     0.500086399  0.166645078  0.291494470
     0.500079975  0.166700502  0.791544414
     0.500340728  0.416549206  0.291509995
     0.500446994  0.417554871  0.790331096
     0.500007765  0.666391522  0.292231074
     0.499563147  0.666691172  0.791733071
     0.499971242  0.916576983  0.291753206
     0.499903816  0.916660418  0.791721640
     0.666809162  0.166523739  0.291510917
     0.666815224  0.166528535  0.791569794
     0.667295481  0.416321644  0.290904882
     0.667140024  0.416372854  0.791384590
     0.666662075  0.666525893  0.291493340
     0.666347515  0.666402989  0.791405515
     0.666634788  0.916565741  0.291678438
     0.666536645  0.916550754  0.791661906
     0.833503112  0.166511781  0.291553244
     0.833474956  0.166528767  0.791619026
     0.833712727  0.416481079  0.291312942
     0.833586920  0.416494874  0.791532367
     0.833284050  0.666606581  0.291499101
     0.833120215  0.666623370  0.791569556
     0.833286105  0.916623000  0.291636572
     0.833190873  0.916615025  0.791648330
     0.083385510  0.041708165  0.291636045
     0.083329775  0.041797413  0.791649241
     0.083543540  0.291676504  0.291703905
     0.083440585  0.291711849  0.791725667
     0.083334456  0.541721787  0.291781174
     0.082789244  0.541829699  0.791944664
     0.083214077  0.791769405  0.291738802
     0.083012393  0.791909116  0.791791100
     0.250037157  0.041731825  0.291626740
     0.250013626  0.041848799  0.791638910
     0.250183511  0.291755789  0.291721317
     0.250107362  0.291907669  0.791658574
     0.250036463  0.541759003  0.291982558
     0.248671298  0.542090444  0.792565356
     0.249911530  0.791744266  0.291798247
     0.249543776  0.792126303  0.791938017
     0.416679244  0.041668708  0.291628754
     0.416668606  0.041733310  0.791638311
     0.416813527  0.291706237  0.291501869
     0.416805322  0.291955073  0.791407472
     0.416769283  0.541619844  0.292060129
     0.416622649  0.791531795  0.292042888
     0.416414985  0.791827662  0.791838721
     0.583341935  0.041579840  0.291621767
     0.583338400  0.041614652  0.791626431
     0.583577166  0.291517550  0.291352689
     0.583638542  0.291576994  0.791337519
     0.583590028  0.541446813  0.291505622
     0.582629647  0.540845118  0.790334469
     0.583290287  0.791518694  0.291737048
     0.583111844  0.791522950  0.791658522
     0.750029575  0.041546683  0.291599148
     0.749996685  0.041544081  0.791622190
     0.750342111  0.291420291  0.291329034
     0.750288719  0.291435451  0.791504695
     0.750212396  0.541513771  0.291346206
     0.750088185  0.541437406  0.791349596
     0.749935142  0.791583633  0.291574704
     0.749773114  0.791534693  0.791563401
[...]
 196      -0.005     0.002     0.005       1.285
 197      -0.005    -0.003     0.017       0.125
 198      -0.001     0.000     0.002       0.761
 199      -0.003     0.001     0.004       1.060
 200       0.002    -0.000    -0.002       1.142
 201       0.006    -0.003    -0.006       1.544
 202       0.005     0.000    -0.008       0.519
 203       0.002    -0.002     0.050      -0.089
 204       0.009    -0.001     0.025      -0.415
 205       0.008     0.006     0.081      -0.019
 206      -0.002    -0.000     0.002       0.665
 207       0.009     0.006     0.027      -0.114
 208       0.003     0.001    -0.005       0.520
 209      -0.006    -0.005     0.015       0.030
 210      -0.012    -0.008     0.016       0.239
 211       0.356     0.348     0.593      -0.015
 212       0.008     0.003     0.029      -0.200
 213       0.900     0.863     1.560      -0.024
 214      -0.004     0.001     0.004       1.177
 215      -0.001    -0.000     0.017       0.058
 216       0.005     0.002    -0.005       0.549
 217      -0.012     0.011    -0.013      -1.773
 218       0.016    -0.015    -0.017       1.812
 219      -0.012    -0.009     0.016       0.206
 220       0.348     0.340     0.581      -0.013
 221       0.004     0.001    -0.005       0.791
 222      -0.004    -0.003     0.015       0.037
 223      -0.003     0.002     0.005       0.949
 224       0.050     0.049     0.096      -0.011
 225       0.054     0.047     0.104      -0.073
 226      -0.048    -0.029     0.078       0.236
 227       0.008    -0.002    -0.008       1.217
 228      -0.023    -0.017     0.044       0.115
 229      -0.003    -0.000     0.003       0.815
 230      -0.006    -0.004     0.007       0.235
 231       0.001    -0.001    -0.002       1.439
 232       0.004    -0.003    -0.006       1.055
 233       0.003     0.000    -0.009       0.307
 234       0.016    -0.014    -0.017       1.786
 235       0.005     0.002    -0.005       0.520
 236      -0.011     0.010    -0.013      -1.544
 237      -0.001    -0.000     0.002       0.466
 238      -0.003     0.001     0.006       0.620
 239      -0.001    -0.001     0.002       0.173
 240       0.002    -0.002     0.006      -0.599
 241       0.002     0.001    -0.003       0.352
 242      -0.004    -0.000     0.011       0.328
 243       0.005     0.004    -0.008       0.127
 244       0.151     0.140     0.218      -0.050
 245      -0.002     0.001     0.003       0.919
 246      -0.003    -0.001     0.015       0.149
 247      -0.003    -0.001     0.004       0.629
 248      -0.002    -0.001     0.009       0.113
 249       0.004     0.000    -0.005       0.619
 250      -0.017     0.014    -0.019      -1.630
 251       0.011     0.002     0.030      -0.297
 252       0.973     0.931     1.603      -0.026
 253       0.004     0.001    -0.005       0.489
 254       0.079     0.074     0.171      -0.033
 255      -0.004    -0.000     0.005       0.870
 256      -0.006    -0.005     0.009       0.059
 257       0.007    -0.002    -0.009       1.095
 258      -0.018    -0.013     0.049       0.099
 259      -0.018    -0.014     0.023       0.188
 260       0.005     0.000    -0.008       0.608
 261      -0.005    -0.001     0.046       0.086
 262      -0.004    -0.000     0.004       0.767
 263      -0.005    -0.004     0.009       0.018
 264       0.008    -0.001    -0.008       1.136
 265       0.365     0.364     0.607      -0.003
 266       0.016    -0.014    -0.018       1.651
 267       0.004     0.001    -0.006       0.548
 268      -0.018     0.014    -0.020      -1.624
 269      -0.002    -0.001     0.003       0.281
 270       0.007     0.005     0.019      -0.104
 271       0.002    -0.001    -0.006       0.523
 272      -0.017     0.009    -0.019      -1.388
 273       0.008     0.000    -0.010       0.781
 274       0.430     0.426     0.648      -0.006
 275       0.002     0.001    -0.003       0.549
 276      -0.007    -0.004     0.012       0.249
 277      -0.001    -0.000     0.002       0.570
 278       0.003     0.000    -0.004       0.658
 279       0.002     0.000    -0.003       0.660
 280      -0.004    -0.001     0.009       0.301
 281      -0.006     0.003     0.007       1.404
 282       0.121     0.112     0.145      -0.063
 283      -0.001     0.001     0.003       0.321
 284       0.002    -0.002     0.008      -0.490
 285      -0.001    -0.000     0.002       0.570
 286       0.003     0.000    -0.004       0.658
 287      -0.001     0.001     0.003       0.321
 288       0.002    -0.002     0.008      -0.490
 289      -0.006     0.003     0.007       1.404
 290       0.121     0.112     0.145      -0.063
 291       0.002     0.000    -0.003       0.660
 292      -0.004    -0.001     0.009       0.301
 293      -0.002    -0.001     0.003       0.281
 294       0.007     0.005     0.019      -0.104
 295       0.002     0.001    -0.003       0.549
 296      -0.007    -0.004     0.012       0.249
 297       0.008     0.000    -0.010       0.781
 298       0.430     0.426     0.648      -0.006
 299       0.002    -0.001    -0.006       0.523
 300      -0.017     0.009    -0.019      -1.388
 301      -0.004    -0.000     0.004       0.767
 302      -0.005    -0.004     0.009       0.018
 303       0.004     0.001    -0.006       0.548
 304      -0.018     0.014    -0.020      -1.624
 305       0.016    -0.014    -0.018       1.651
 306       0.008    -0.001    -0.008       1.136
 307       0.365     0.364     0.607      -0.003
 308      -0.004    -0.000     0.005       0.870
 309      -0.006    -0.005     0.009       0.059
 310       0.005     0.000    -0.008       0.608
 311      -0.005    -0.001     0.046       0.086
 312      -0.018    -0.014     0.023       0.188
 313       0.007    -0.002    -0.009       1.095
 314      -0.018    -0.013     0.049       0.099
 315      -0.003    -0.001     0.004       0.629
 316      -0.002    -0.001     0.009       0.113
 317       0.004     0.001    -0.005       0.489
 318       0.079     0.074     0.171      -0.033
 319       0.011     0.002     0.030      -0.297
 320       0.973     0.931     1.603      -0.026
 321       0.004     0.000    -0.005       0.619
 322      -0.017     0.014    -0.019      -1.630
 323      -0.001    -0.001     0.002       0.173
 324       0.002    -0.002     0.006      -0.599
 325      -0.002     0.001     0.003       0.919
 326      -0.003    -0.001     0.015       0.149
 327       0.005     0.004    -0.008       0.127
 328       0.151     0.140     0.218      -0.050
 329       0.002     0.001    -0.003       0.352
 330      -0.004    -0.000     0.011       0.328
 331      -0.001    -0.000     0.002       0.466
 332      -0.003     0.001     0.006       0.620
 333       0.005     0.002    -0.005       0.520
 334      -0.011     0.010    -0.013      -1.544
 335       0.003     0.000    -0.009       0.307
 336       0.016    -0.014    -0.017       1.786
 337       0.001    -0.001    -0.002       1.439
 338       0.004    -0.003    -0.006       1.055
 339      -0.003    -0.000     0.003       0.815
 340      -0.006    -0.004     0.007       0.235
 341       0.008    -0.002    -0.008       1.217
 342      -0.023    -0.017     0.044       0.115
 343       0.054     0.047     0.104      -0.073
 344      -0.048    -0.029     0.078       0.236
 345      -0.003     0.002     0.005       0.949
 346       0.050     0.049     0.096      -0.011
 347       0.004     0.001    -0.005       0.791
 348      -0.004    -0.003     0.015       0.037
 349      -0.012    -0.009     0.016       0.206
 350       0.348     0.340     0.581      -0.013
 351       0.016    -0.015    -0.017       1.812
 352       0.005     0.002    -0.005       0.549
 353      -0.012     0.011    -0.013      -1.773
 354      -0.004     0.001     0.004       1.177
 355      -0.001    -0.000     0.017       0.058
 356       0.008     0.003     0.029      -0.200
 357       0.900     0.863     1.560      -0.024
 358      -0.012    -0.008     0.016       0.239
 359       0.356     0.348     0.593      -0.015
 360       0.003     0.001    -0.005       0.520
 361      -0.006    -0.005     0.015       0.030
 362      -0.002    -0.000     0.002       0.665
 363       0.009     0.006     0.027      -0.114
 364       0.009    -0.001     0.025      -0.415
 365       0.008     0.006     0.081      -0.019
 366       0.005     0.000    -0.008       0.519
 367       0.002    -0.002     0.050      -0.089
 368       0.002    -0.000    -0.002       1.142
 369       0.006    -0.003    -0.006       1.544
 370      -0.001     0.000     0.002       0.761
 371      -0.003     0.001     0.004       1.060
 372      -0.005     0.002     0.005       1.285
 373      -0.005    -0.003     0.017       0.125
 374       0.005     0.002    -0.006       0.427
 375      -0.001     0.000     0.023       0.049
 376       0.000     0.000    -0.001       0.294
 377       0.003    -0.002     0.004      -1.392
 378      -0.002     0.002     0.003       1.209
 379       0.002    -0.000    -0.002       0.928
 380       0.003    -0.002     0.013      -0.381
 381      -0.004    -0.000     0.005       0.695
 382      -0.010    -0.004     0.011       0.544
 383       0.008    -0.001    -0.008       1.098
 384      -0.003    -0.000     0.003       0.935
 385       0.002    -0.001    -0.003       0.974
 386      -0.003    -0.001     0.004       0.446
 387      -0.002    -0.001     0.004       0.285
 388      -0.010    -0.007     0.011       0.307
 389      -0.007    -0.004     0.008       0.370
 390       0.020    -0.015    -0.023       1.537
 391      -0.014     0.010    -0.021      -1.158
 392      -0.005    -0.004     0.007       0.147
 393      -0.005    -0.004     0.005       0.156
 394      -0.004    -0.003     0.008       0.117
 395      -0.004    -0.001     0.006       0.468
 396       0.006     0.001     0.058      -0.079
 397      -0.010    -0.007     0.018       0.153
 398       0.057     0.035     0.169      -0.134
 399       0.344     0.339     0.597      -0.009
 400      -0.010     0.008    -0.013      -1.398
 401      -0.004    -0.001     0.012       0.283
 402      -0.005    -0.004     0.009       0.193
 403      -0.005    -0.001     0.006       0.558
 404      -0.012     0.009     0.061       0.358
 405      -0.016     0.015    -0.021      -1.485
 406       0.367     0.357     0.602      -0.017
 407      -0.015    -0.010     0.057       0.103
 408      -0.011    -0.009     0.012       0.206
 409      -0.008    -0.004     0.009       0.466
 410      -0.003    -0.003     0.007       0.064
 411      -0.003    -0.001     0.005       0.448
 412       0.007     0.005     0.081      -0.033
 413       0.004    -0.001     0.025      -0.235
 414      -0.012     0.009     0.062       0.333
 415      -0.015     0.015    -0.022      -1.370
 416      -0.003    -0.003     0.012       0.046
 417      -0.004    -0.002     0.006       0.294
 418      -0.003    -0.000     0.005       0.596
 419      -0.002    -0.001     0.003       0.409
 420       0.020     0.017     0.056      -0.043
 421       0.005    -0.004     0.008      -1.154
 422      -0.010    -0.006     0.016       0.213
 423      -0.007     0.001     0.011       0.804
 424      -0.003    -0.001     0.004       0.620
 425       0.002    -0.001    -0.003       1.391
 426      -0.003     0.001     0.005       0.749
 427      -0.002    -0.001     0.003       0.401
 428       0.010    -0.009    -0.016       1.203
 429      -0.005     0.002     0.015       0.458
 430      -0.006    -0.002     0.011       0.424
 431      -0.006    -0.002     0.009       0.430
 432      -0.003    -0.000     0.003       0.720
 433      -0.002    -0.001     0.002       0.519
 434      -0.004    -0.003     0.011       0.091
 435      -0.004    -0.002     0.006       0.311
 436      -0.026    -0.018     0.044       0.181
 437      -0.019    -0.016     0.020       0.156
 438       0.020    -0.015    -0.020       1.737
 439      -0.016     0.009    -0.019      -1.328
 440      -0.004    -0.003     0.006       0.131
 441      -0.003    -0.001     0.006       0.304
 442      -0.004    -0.003     0.019       0.052
 443      -0.007    -0.003     0.009       0.494
 444       0.358     0.350     0.592      -0.014
 445      -0.013    -0.008     0.059       0.086
 446      -0.019    -0.013     0.049       0.117
 447      -0.019    -0.017     0.020       0.109
 448      -0.006    -0.004     0.008       0.249
 449      -0.005    -0.002     0.007       0.499
 450      -0.007    -0.007     0.015       0.021
 451      -0.006    -0.001     0.009       0.497
 452       0.896     0.856     1.562      -0.026
 453       0.007    -0.000     0.068      -0.117
 454       0.010     0.007     0.064      -0.048
 455      -0.009    -0.007     0.018       0.115
 456      -0.004    -0.003     0.008       0.185
 457      -0.004    -0.001     0.006       0.499
 458      -0.002    -0.001     0.016       0.085
 459      -0.003    -0.001     0.005       0.316
 460       0.007     0.002     0.079      -0.060
 461       0.008    -0.002     0.027      -0.361
 462      -0.002     0.001     0.021       0.147
 463      -0.006    -0.002     0.008       0.471
 464      -0.003    -0.001     0.005       0.308
 465      -0.002    -0.001     0.003       0.219
 466       0.003     0.000     0.011      -0.276
 467      -0.002     0.000     0.002       0.776
 468      -0.006    -0.001     0.018       0.279
 469      -0.006     0.002     0.009       0.938
 470      -0.004    -0.001     0.008       0.459
 471       0.004    -0.001    -0.005       0.974
 472       0.002     0.001    -0.003       0.708
 473       0.002    -0.000    -0.002       0.799
 474       0.002    -0.001     0.003      -0.877
 475       0.002     0.001    -0.003       0.354
 476      -0.006     0.001     0.007       1.000
 477      -0.009    -0.004     0.011       0.433
 478       0.004     0.000    -0.006       0.687
 479      -0.005    -0.002     0.014       0.253
 480       0.002    -0.000    -0.002       1.002
 481       0.003     0.000    -0.004       0.770
 482      -0.001    -0.001     0.003       0.110
 483      -0.004    -0.002     0.006       0.327
 484      -0.008     0.000     0.012       0.655
 485      -0.020    -0.016     0.021       0.188
 486       0.011     0.002     0.023      -0.393
 487       0.019     0.017     0.067      -0.035
 488      -0.002    -0.001     0.003       0.339
 489       0.005    -0.004    -0.005       1.653
 490      -0.003    -0.001     0.006       0.431
 491      -0.006    -0.005     0.011       0.089
 492      -0.017     0.015    -0.022      -1.479
 493       0.046     0.029     0.160      -0.105
 494      -0.014    -0.009     0.018       0.272
 495      -0.048    -0.037     0.074       0.151
 496       0.005    -0.001    -0.005       1.148
 497      -0.006    -0.005     0.010       0.140
 498      -0.004    -0.001     0.007       0.432
 499      -0.007    -0.006     0.013       0.128
 500       0.005    -0.000     0.054      -0.100
 501       0.361     0.354     0.601      -0.012
 502      -0.018     0.015    -0.021      -1.603
 503       0.054     0.037     0.168      -0.103
 504      -0.005    -0.001     0.006       0.732
 505      -0.006    -0.005     0.011       0.133
 506      -0.004    -0.001     0.006       0.408
 507       0.003     0.002     0.018      -0.012
 508       0.072     0.060     0.163      -0.070
 509      -0.016     0.012     0.064       0.443
 510       0.002    -0.001     0.020      -0.147
 511       0.023     0.013     0.064      -0.157
 512      -0.003    -0.001     0.004       0.452
 513      -0.004    -0.003     0.007       0.094
 514      -0.001    -0.000     0.005       0.179
 515      -0.003    -0.001     0.005       0.492
 516      -0.006     0.001     0.016       0.414
 517      -0.011    -0.004     0.016       0.397
 518      -0.005    -0.001     0.006       0.670
 519      -0.007    -0.002     0.014       0.309
 520      -0.001    -0.000     0.002       0.421
 521       0.003    -0.000    -0.004       0.861
 522      -0.001    -0.000     0.003       0.486
 523       0.003    -0.001    -0.003       1.154
 524      -0.003     0.001     0.005       0.796
 525      -0.005    -0.003     0.009       0.290
 526       0.009     0.001    -0.009       0.892
 527      -0.017    -0.013     0.018       0.247
 528       0.003    -0.001    -0.003       1.263
 529      -0.006    -0.004     0.009       0.235
 530      -0.003    -0.001     0.004       0.349
 531      -0.004    -0.003     0.006       0.117
 532      -0.004    -0.000     0.009       0.432
 533      -0.011    -0.010     0.017       0.062
 534      -0.016    -0.008     0.018       0.423
 535      -0.037    -0.027     0.086       0.116
 536      -0.005    -0.001     0.007       0.535
 537      -0.017     0.010    -0.019      -1.448
 538      -0.004    -0.001     0.006       0.577
 539      -0.005    -0.003     0.009       0.165
 540       0.002    -0.002     0.019      -0.213
 541       0.015     0.007     0.059      -0.128
 542       0.014     0.003     0.065      -0.175
 543      -0.005     0.001     0.014       0.448
 544      -0.019    -0.017     0.021       0.090
 545      -0.004    -0.001     0.005       0.521
 546      -0.004    -0.003     0.008       0.115
 547      -0.008    -0.005     0.014       0.179
 548       0.002    -0.002     0.047      -0.086
 549       0.008     0.001     0.056      -0.127
 550       0.358     0.352     0.601      -0.009
 551      -0.004     0.000     0.011       0.412
 552      -0.010    -0.009     0.018       0.055
 553      -0.002    -0.001     0.003       0.165
 554      -0.003    -0.001     0.005       0.330
 555      -0.003    -0.000     0.015       0.212
 556      -0.008    -0.005     0.014       0.187
 557      -0.010    -0.004     0.014       0.406
 558      -0.003     0.003     0.050       0.122
 559      -0.002    -0.001     0.006       0.218
 560      -0.005    -0.003     0.009       0.241
 561      -0.002     0.000     0.002       0.800
 562       0.003    -0.000    -0.003       0.854
 563       0.003    -0.000     0.012      -0.234
 564      -0.004    -0.002     0.006       0.348
 565       0.007     0.000    -0.008       0.915
 566       0.002    -0.002     0.024      -0.170
 567       0.002     0.000    -0.002       0.935
 568       0.004    -0.001    -0.005       0.915
 569      24.884    24.881    48.325      -0.000
 570      24.884    24.881    48.325      -0.000
 571      -1.002    -0.646    -1.141      -0.312
 572      -0.997    -0.646    -1.134      -0.310
 573      -1.006    -0.660    -1.141      -0.304
 574      -1.006    -0.660    -1.141      -0.304
 575      -0.997    -0.646    -1.134      -0.310
 576      -1.002    -0.646    -1.140      -0.312
 ---------------------------------------------------------------------



--------------------------------------------------------------------------------------------------------


     LOOP+:  cpu time  707.5110: real time  709.6499
    4ORBIT:  cpu time    0.0000: real time    0.0000

 total amount of memory used by VASP MPI-rank0   135650. kBytes
=======================================================================

   base      :      30000. kBytes
   nonlr-proj:       4918. kBytes
   fftplans  :       8132. kBytes
   grid      :      24015. kBytes
   one-center:        147. kBytes
   wavefun   :      68438. kBytes
 
  
  
 General timing and accounting informations for this job:
 ========================================================
  
                  Total CPU time used (sec):      728.039
                            User time (sec):      725.597
                          System time (sec):        2.442
                         Elapsed time (sec):      730.692
  
                   Maximum memory used (kb):      307564.
                   Average memory used (kb):          N/A
  
                          Minor page faults:       308490
                          Major page faults:            0
                 Voluntary context switches:         6576
