 vasp.6.2.0 18Jan21 (build Apr 30 2021 19:00:08) gamma-only                     
  
 executed on             LinuxIFC date 2022.11.10  12:01:38
 running on   48 total cores
 distrk:  each k-point on   48 cores,    1 groups
 distr:  one band on NCORE=  12 cores,    4 groups


--------------------------------------------------------------------------------------------------------


 INCAR:
   SYSTEM = Diamond
   PREC = Normal
   ISTART = 0
   ICHARG = 11
   ISPIN = 2
   MAGMOM = 568*0.0 2*1.0 6*1.0
   NPAR = 4
   NELECT = 2305
   LHYPERFINE = T
   LEFG = T
   ENCUT = 700
   NELM = 1000
   NELMIN = 4
   EDIFF = 1E-06
   LREAL = Auto
   ALGO = Normal
   EDIFFG = -1E-02
   NSW = 0
   IBRION = 2
   ISIF = 2
   ISYM = 2
   POTIM = 0.5
   ISMEAR = 0
   SIGMA = 0.05
   NEDOS = 1000
   LWAVE = F
   LCHARG = F
   LVHAR = F
   LELF = F

 POTCAR:    PAW_PBE C 08Apr2002                   
 POTCAR:    PAW_PBE N 08Apr2002                   
 POTCAR:    PAW_PBE C 08Apr2002                   
 POTCAR:    PAW_PBE C 08Apr2002                   
   VRHFIN =C: s2p2                                                                                  
   LEXCH  = PE                                                                                      
   EATOM  =   147.1560 eV,   10.8157 Ry                                                             
                                                                                                    
   TITEL  = PAW_PBE C 08Apr2002                                                                     
   LULTRA =        F    use ultrasoft PP ?                                                          
   IUNSCR =        1    unscreen: 0-lin 1-nonlin 2-no                                               
   RPACOR =    1.200    partial core radius                                                         
   POMASS =   12.011; ZVAL   =    4.000    mass and valenz                                          
   RCORE  =    1.500    outmost cutoff radius                                                       
   RWIGS  =    1.630; RWIGS  =    0.863    wigner-seitz radius (au A)                               
   ENMAX  =  400.000; ENMIN  =  300.000 eV                                                          
   ICORE  =        2    local potential                                                             
   LCOR   =        T    correct aug charges                                                         
   LPAW   =        T    paw PP                                                                      
   EAUG   =  644.873                                                                                
   DEXC   =    0.000                                                                                
   RMAX   =    1.529    core radius for proj-oper                                                   
   RAUG   =    1.300    factor for augmentation sphere                                              
   RDEP   =    1.501    radius for radial grids                                                     
   RDEPT  =    1.300    core radius for aug-charge                                                  
                                                                                                    
   Atomic configuration                                                                             
    4 entries                                                                                       
     n  l   j            E        occ.                                                              
     1  0  0.50      -273.3789   2.0000                                                             
     2  0  0.50       -13.7508   2.0000                                                             
     2  1  0.50        -5.2854   2.0000                                                             
     3  2  1.50        -5.4423   0.0000                                                             
   Description                                                                                      
     l       E           TYP  RCUT    TYP  RCUT                                                     
     0    -13.7508458     23  1.200                                                                 
     0     -8.2022199     23  1.200                                                                 
     1     -5.2854383     23  1.500                                                                 
     1     34.0145650     23  1.500                                                                 
     2     -5.4423304      7  1.500                                                                 
  local pseudopotential read in
  partial core-charges read in
  partial kinetic energy density read in
  atomic valenz-charges read in
  non local Contribution for L=           0  read in
    real space projection operators read in
  non local Contribution for L=           0  read in
    real space projection operators read in
  non local Contribution for L=           1  read in
    real space projection operators read in
  non local Contribution for L=           1  read in
    real space projection operators read in
    PAW grid and wavefunctions read in
 
   number of l-projection  operators is LMAX  =           4
   number of lm-projection operators is LMMAX =           8
 
 POTCAR:    PAW_PBE N 08Apr2002                   
   VRHFIN =N: s2p3                                                                                  
   LEXCH  = PE                                                                                      
   EATOM  =   264.5486 eV,   19.4438 Ry                                                             
                                                                                                    
   TITEL  = PAW_PBE N 08Apr2002                                                                     
   LULTRA =        F    use ultrasoft PP ?                                                          
   IUNSCR =        1    unscreen: 0-lin 1-nonlin 2-no                                               
   RPACOR =    1.200    partial core radius                                                         
   POMASS =   14.001; ZVAL   =    5.000    mass and valenz                                          
   RCORE  =    1.500    outmost cutoff radius                                                       
   RWIGS  =    1.400; RWIGS  =    0.741    wigner-seitz radius (au A)                               
   ENMAX  =  400.000; ENMIN  =  300.000 eV                                                          
   ICORE  =        2    local potential                                                             
   LCOR   =        T    correct aug charges                                                         
   LPAW   =        T    paw PP                                                                      
   EAUG   =  627.112                                                                                
   DEXC   =    0.000                                                                                
   RMAX   =    1.529    core radius for proj-oper                                                   
   RAUG   =    1.300    factor for augmentation sphere                                              
   RDEP   =    1.514    radius for radial grids                                                     
   RDEPT  =    1.338    core radius for aug-charge                                                  
                                                                                                    
   Atomic configuration                                                                             
    4 entries                                                                                       
     n  l   j            E        occ.                                                              
     1  0  0.50      -384.7179   2.0000                                                             
     2  0  0.50       -18.5828   2.0000                                                             
     2  1  0.50        -7.0898   3.0000                                                             
     3  2  1.50        -6.8029   0.0000                                                             
   Description                                                                                      
     l       E           TYP  RCUT    TYP  RCUT                                                     
     0    -18.5828119     23  1.200                                                                 
     0    -13.5018863     23  1.200                                                                 
     1     -7.0897853     23  1.500                                                                 
     1      9.5240782     23  1.500                                                                 
     2     -6.8029130      7  1.500                                                                 
  local pseudopotential read in
  partial core-charges read in
  partial kinetic energy density read in
  atomic valenz-charges read in
  non local Contribution for L=           0  read in
    real space projection operators read in
  non local Contribution for L=           0  read in
    real space projection operators read in
  non local Contribution for L=           1  read in
    real space projection operators read in
  non local Contribution for L=           1  read in
    real space projection operators read in
    PAW grid and wavefunctions read in
 
   number of l-projection  operators is LMAX  =           4
   number of lm-projection operators is LMMAX =           8
 
 POTCAR:    PAW_PBE C 08Apr2002                   
   VRHFIN =C: s2p2                                                                                  
   LEXCH  = PE                                                                                      
   EATOM  =   147.1560 eV,   10.8157 Ry                                                             
                                                                                                    
   TITEL  = PAW_PBE C 08Apr2002                                                                     
   LULTRA =        F    use ultrasoft PP ?                                                          
   IUNSCR =        1    unscreen: 0-lin 1-nonlin 2-no                                               
   RPACOR =    1.200    partial core radius                                                         
   POMASS =   12.011; ZVAL   =    4.000    mass and valenz                                          
   RCORE  =    1.500    outmost cutoff radius                                                       
   RWIGS  =    1.630; RWIGS  =    0.863    wigner-seitz radius (au A)                               
   ENMAX  =  400.000; ENMIN  =  300.000 eV                                                          
   ICORE  =        2    local potential                                                             
   LCOR   =        T    correct aug charges                                                         
   LPAW   =        T    paw PP                                                                      
   EAUG   =  644.873                                                                                
   DEXC   =    0.000                                                                                
   RMAX   =    1.529    core radius for proj-oper                                                   
   RAUG   =    1.300    factor for augmentation sphere                                              
   RDEP   =    1.501    radius for radial grids                                                     
   RDEPT  =    1.300    core radius for aug-charge                                                  
                                                                                                    
   Atomic configuration                                                                             
    4 entries                                                                                       
     n  l   j            E        occ.                                                              
     1  0  0.50      -273.3789   2.0000                                                             
     2  0  0.50       -13.7508   2.0000                                                             
     2  1  0.50        -5.2854   2.0000                                                             
     3  2  1.50        -5.4423   0.0000                                                             
   Description                                                                                      
     l       E           TYP  RCUT    TYP  RCUT                                                     
     0    -13.7508458     23  1.200                                                                 
     0     -8.2022199     23  1.200                                                                 
     1     -5.2854383     23  1.500                                                                 
     1     34.0145650     23  1.500                                                                 
     2     -5.4423304      7  1.500                                                                 
  local pseudopotential read in
  partial core-charges read in
  partial kinetic energy density read in
  atomic valenz-charges read in
  non local Contribution for L=           0  read in
    real space projection operators read in
  non local Contribution for L=           0  read in
    real space projection operators read in
  non local Contribution for L=           1  read in
    real space projection operators read in
  non local Contribution for L=           1  read in
    real space projection operators read in
    PAW grid and wavefunctions read in
 
   number of l-projection  operators is LMAX  =           4
   number of lm-projection operators is LMMAX =           8
 
 Optimization of the real space projectors (new method)

 maximal supplied QI-value         = 25.13
 optimisation between [QCUT,QGAM] = [ 13.32, 26.89] = [ 49.69,202.52] Ry 
 Optimized for a Real-space Cutoff    1.01 Angstroem

   l    n(q)    QCUT    max X(q) W(low)/X(q) W(high)/X(q)  e(spline) 
   0      8    13.321   115.676    0.29E-03    0.42E-03    0.11E-06
   0      8    13.321    87.132    0.29E-03    0.42E-03    0.11E-06
   1      8    13.321     4.429    0.39E-03    0.33E-03    0.98E-07
   1      8    13.321     2.733    0.30E-03    0.26E-03    0.97E-07
 Optimization of the real space projectors (new method)

 maximal supplied QI-value         = 25.13
 optimisation between [QCUT,QGAM] = [ 13.32, 26.89] = [ 49.69,202.52] Ry 
 Optimized for a Real-space Cutoff    1.01 Angstroem

   l    n(q)    QCUT    max X(q) W(low)/X(q) W(high)/X(q)  e(spline) 
   0      8    13.321    79.467    0.28E-03    0.38E-03    0.11E-06
   0      8    13.321    66.151    0.27E-03    0.38E-03    0.11E-06
   1      8    13.321    23.070    0.40E-03    0.78E-03    0.29E-06
   1      8    13.321    16.668    0.40E-03    0.79E-03    0.30E-06
 Optimization of the real space projectors (new method)

 maximal supplied QI-value         = 25.13
 optimisation between [QCUT,QGAM] = [ 13.32, 26.89] = [ 49.69,202.52] Ry 
 Optimized for a Real-space Cutoff    1.01 Angstroem

   l    n(q)    QCUT    max X(q) W(low)/X(q) W(high)/X(q)  e(spline) 
   0      8    13.321   115.676    0.29E-03    0.42E-03    0.11E-06
   0      8    13.321    87.132    0.29E-03    0.42E-03    0.11E-06
   1      8    13.321     4.429    0.39E-03    0.33E-03    0.98E-07
   1      8    13.321     2.733    0.30E-03    0.26E-03    0.97E-07
  PAW_PBE C 08Apr2002                   :
 energy of atom  1       EATOM= -147.1560
 kinetic energy error for atom=    0.0032 (will be added to EATOM!!)
  PAW_PBE N 08Apr2002                   :
 energy of atom  2       EATOM= -264.5486
 kinetic energy error for atom=    0.0061 (will be added to EATOM!!)
  PAW_PBE C 08Apr2002                   :
 energy of atom  3       EATOM= -147.1560
 kinetic energy error for atom=    0.0032 (will be added to EATOM!!)
 
 
 POSCAR: Autosave
  positions in direct lattice
  velocities in cartesian coordinates
 exchange correlation table for  LEXCH =        8
   RHO(1)=    0.500       N(1)  =     2000
   RHO(2)=  100.500       N(2)  =     4000
 


--------------------------------------------------------------------------------------------------------


 ion  position               nearest neighbor table
   1  0.000  1.000  0.000- 285 1.54 381 1.54 472 1.54 434 1.54
   2  0.000  1.000  0.500- 286 1.54 380 1.54 471 1.54 433 1.54
   3  0.000  0.250  0.000- 287 1.54 383 1.54 466 1.54 428 1.54
   4  0.000  0.250  0.500- 288 1.54 382 1.54 465 1.54 427 1.54
   5  0.000  0.500  0.000- 468 1.54 430 1.54 289 1.54 385 1.54
   6  0.000  0.500  0.500- 290 1.54 384 1.54 467 1.55 429 1.55
   7  0.000  0.750  1.000- 291 1.54 387 1.54 470 1.54 432 1.54
   8  0.000  0.750  0.500- 292 1.54 386 1.54 469 1.55 431 1.55
   9  0.167  1.000  0.000- 293 1.54 434 1.54 442 1.54 389 1.54
  10  0.167  1.000  0.500- 294 1.54 433 1.54 441 1.54 388 1.55
  11  0.167  0.250  0.000- 428 1.54 295 1.54 391 1.54 436 1.54
  12  0.167  0.250  0.500- 296 1.54 435 1.54 390 1.54 427 1.55
  13  0.167  0.500  0.000- 430 1.54 297 1.54 438 1.54 393 1.54
  14  0.167  0.500  0.500- 392 1.54 298 1.54 429 1.55 437 1.55
  15  0.167  0.750  0.000- 440 1.54 299 1.54 432 1.54 395 1.54
  16  0.167  0.750  0.500- 300 1.54 431 1.54 394 1.54 439 1.55
  17  0.333  1.000  0.000- 301 1.54 449 1.54 442 1.54 397 1.54
  18  0.333  1.000  0.500- 302 1.54 448 1.54 441 1.54 396 1.55
  19  0.333  0.250  0.000- 303 1.54 436 1.54 399 1.54 444 1.54
  20  0.334  0.250  0.500- 443 1.54 304 1.54 435 1.55 398 1.55
  21  0.333  0.500  0.000- 305 1.54 445 1.54 438 1.54 401 1.55
  22  0.335  0.500  0.500- 400 1.54 306 1.55 575 1.55 437 1.56
  23  0.333  0.750  0.000- 307 1.54 403 1.54 447 1.54 440 1.54
  24  0.334  0.750  0.500- 439 1.54 308 1.54 446 1.55 402 1.55
  25  0.500  1.000  0.000- 309 1.54 456 1.54 449 1.54 405 1.54
  26  0.500  1.000  0.500- 310 1.54 455 1.54 448 1.54 404 1.55
  27  0.500  0.250  0.000- 407 1.54 311 1.54 451 1.54 444 1.54
  28  0.500  0.250  0.500- 450 1.54 443 1.54 312 1.54 406 1.55
  29  0.500  0.500  0.000- 313 1.54 452 1.55 445 1.55 408 1.55
  30  0.500  0.750  1.000- 314 1.54 410 1.54 454 1.54 447 1.54
  31  0.500  0.750  0.500- 453 1.54 446 1.54 315 1.54 409 1.55
  32  0.667  1.000  0.000- 316 1.54 456 1.54 464 1.54 412 1.54
  33  0.667  1.000  0.500- 317 1.54 455 1.54 463 1.54 411 1.55
  34  0.667  0.250  0.000- 318 1.54 458 1.54 414 1.54 451 1.54
  35  0.666  0.250  0.500- 450 1.54 319 1.54 457 1.55 413 1.55
  36  0.667  0.500  0.000- 320 1.54 452 1.54 460 1.54 416 1.55
  37  0.665  0.500  0.500- 415 1.54 321 1.55 576 1.55 459 1.56
  38  0.667  0.750  0.000- 322 1.54 418 1.54 454 1.54 462 1.54
  39  0.666  0.750  0.500- 461 1.54 323 1.54 453 1.55 417 1.55
  40  0.833  1.000  0.000- 324 1.54 472 1.54 464 1.54 420 1.54
  41  0.833  1.000  0.500- 325 1.54 471 1.54 463 1.54 419 1.55
  42  0.833  0.250  0.000- 466 1.54 326 1.54 422 1.54 458 1.54
  43  0.833  0.250  0.500- 327 1.54 457 1.54 421 1.54 465 1.55
  44  0.833  0.500  0.000- 468 1.54 328 1.54 460 1.54 424 1.54
  45  0.833  0.500  0.500- 423 1.54 329 1.54 467 1.55 459 1.55
  46  0.833  0.750  0.000- 462 1.54 330 1.54 470 1.54 426 1.54
  47  0.833  0.750  0.500- 331 1.54 469 1.54 425 1.54 461 1.55
  48  0.083  0.125  0.000- 332 1.54 381 1.54 428 1.54 389 1.54
  49  0.083  0.125  0.500- 333 1.54 427 1.54 388 1.54 380 1.54
  50  0.083  0.375  0.000- 383 1.54 391 1.54 430 1.54 334 1.54
  51  0.083  0.375  0.500- 429 1.54 335 1.54 390 1.54 382 1.55
  52  0.083  0.625  1.000- 393 1.54 385 1.54 432 1.54 336 1.54
  53  0.083  0.625  0.500- 337 1.54 431 1.54 384 1.55 392 1.55
  54  0.083  0.875  1.000- 338 1.54 434 1.54 387 1.54 395 1.54
  55  0.083  0.875  0.500- 339 1.54 386 1.54 433 1.54 394 1.55
  56  0.250  0.125  0.000- 436 1.54 389 1.54 340 1.54 397 1.54
  57  0.250  0.125  0.500- 341 1.54 396 1.54 388 1.55 435 1.55
  58  0.250  0.375  1.000- 342 1.54 391 1.54 399 1.54 438 1.54
  59  0.250  0.375  0.500- 437 1.54 398 1.54 343 1.54 390 1.55
  60  0.250  0.625  0.000- 401 1.54 344 1.54 440 1.54 393 1.54
  61  0.250  0.625  0.500- 439 1.54 392 1.54 345 1.54 400 1.55
  62  0.250  0.875  0.000- 442 1.54 403 1.54 346 1.54 395 1.54
  63  0.250  0.875  0.500- 347 1.54 394 1.54 441 1.55 402 1.55
  64  0.417  0.125  0.000- 444 1.54 405 1.54 397 1.54 348 1.54
  65  0.417  0.125  0.500- 349 1.54 404 1.54 396 1.54 443 1.55
  66  0.417  0.375  0.000- 350 1.54 445 1.54 399 1.54 407 1.54
  67  0.418  0.376  0.500- 406 1.54 351 1.55 575 1.55 398 1.56
  68  0.417  0.625  0.000- 352 1.54 408 1.54 447 1.54 401 1.55
  69  0.417  0.624  0.500- 400 1.54 353 1.55 574 1.55 446 1.56
  70  0.417  0.875  1.000- 449 1.54 410 1.54 354 1.54 403 1.54
  71  0.417  0.875  0.500- 402 1.54 355 1.54 409 1.54 448 1.55
  72  0.583  0.125  0.000- 451 1.54 405 1.54 412 1.54 356 1.54
  73  0.583  0.125  0.500- 357 1.54 404 1.54 411 1.54 450 1.55
  74  0.583  0.375  0.000- 358 1.54 452 1.54 414 1.54 407 1.54
  75  0.582  0.376  0.500- 406 1.54 359 1.55 576 1.55 413 1.56
  76  0.583  0.625  0.000- 360 1.54 408 1.54 454 1.54 416 1.55
  77  0.583  0.624  0.500- 415 1.54 361 1.55 574 1.55 453 1.56
  78  0.583  0.875  1.000- 456 1.54 410 1.54 362 1.54 418 1.54
  79  0.583  0.875  0.500- 363 1.54 417 1.54 409 1.54 455 1.55
  80  0.750  0.125  0.000- 458 1.54 420 1.54 364 1.54 412 1.54
  81  0.750  0.125  0.500- 365 1.54 411 1.54 419 1.55 457 1.55
  82  0.750  0.375  1.000- 366 1.54 422 1.54 414 1.54 460 1.54
  83  0.750  0.375  0.500- 459 1.54 413 1.54 367 1.54 421 1.55
  84  0.750  0.625  0.000- 416 1.54 368 1.54 462 1.54 424 1.54
  85  0.750  0.625  0.500- 461 1.54 423 1.54 369 1.54 415 1.55
  86  0.750  0.875  0.000- 418 1.54 464 1.54 370 1.54 426 1.54
  87  0.750  0.875  0.500- 371 1.54 425 1.54 463 1.55 417 1.55
  88  0.917  0.125  0.000- 372 1.54 381 1.54 466 1.54 420 1.54
  89  0.917  0.125  0.500- 373 1.54 465 1.54 419 1.54 380 1.54
  90  0.917  0.375  0.000- 383 1.54 422 1.54 468 1.54 374 1.54
  91  0.917  0.375  0.500- 467 1.54 375 1.54 421 1.54 382 1.55
  92  0.917  0.625  1.000- 424 1.54 385 1.54 470 1.54 376 1.54
  93  0.917  0.625  0.500- 377 1.54 469 1.54 384 1.55 423 1.55
  94  0.917  0.875  1.000- 378 1.54 472 1.54 387 1.54 426 1.54
  95  0.917  0.875  0.500- 379 1.54 386 1.54 471 1.54 425 1.55
  96  0.000  0.083  0.333- 380 1.54 473 1.54 561 1.54 521 1.54
  97  0.000  0.083  0.833- 381 1.54 474 1.54 562 1.54 522 1.54
  98  0.000  0.333  0.333- 382 1.54 475 1.54 563 1.54 523 1.54
  99  0.000  0.333  0.833- 383 1.54 476 1.54 564 1.54 524 1.54
 100  0.000  0.583  0.333- 384 1.54 477 1.54 565 1.54 525 1.54
 101  0.000  0.583  0.833- 478 1.54 385 1.54 566 1.55 526 1.55
 102  0.000  0.833  0.333- 386 1.54 479 1.54 567 1.54 527 1.54
 103  0.000  0.833  0.833- 387 1.54 480 1.54 568 1.54 528 1.54
 104  0.167  0.083  0.333- 388 1.54 529 1.54 481 1.54 521 1.54
 105  0.167  0.083  0.833- 389 1.54 522 1.54 530 1.54 482 1.54
 106  0.167  0.333  0.333- 390 1.54 483 1.54 531 1.54 523 1.54
 107  0.167  0.333  0.833- 391 1.54 524 1.54 532 1.54 484 1.54
 108  0.167  0.583  0.333- 533 1.54 392 1.54 525 1.54 485 1.54
 109  0.167  0.583  0.833- 526 1.54 486 1.54 534 1.54 393 1.54
 110  0.167  0.833  0.333- 394 1.54 535 1.54 527 1.54 487 1.54
 111  0.167  0.833  0.833- 528 1.54 395 1.54 488 1.54 536 1.54
 112  0.333  0.083  0.333- 396 1.54 537 1.54 489 1.54 529 1.54
 113  0.333  0.083  0.833- 538 1.54 530 1.54 397 1.54 490 1.55
 114  0.333  0.333  0.333- 491 1.54 539 1.54 531 1.54 398 1.55
 115  0.333  0.333  0.834- 399 1.54 492 1.54 532 1.54 540 1.54
 116  0.333  0.583  0.333- 533 1.54 493 1.54 541 1.54 400 1.55
 117  0.333  0.584  0.834- 542 1.53 401 1.54 494 1.54 534 1.54
 118  0.333  0.833  0.333- 543 1.54 402 1.54 535 1.54 495 1.55
 119  0.333  0.833  0.833- 403 1.54 536 1.54 544 1.54 496 1.54
 120  0.500  0.083  0.333- 404 1.54 497 1.54 545 1.54 537 1.54
 121  0.500  0.083  0.833- 405 1.54 546 1.54 538 1.54 498 1.55
 122  0.500  0.333  0.333- 547 1.54 539 1.54 499 1.54 406 1.55
 123  0.500  0.333  0.835- 500 1.53 407 1.54 548 1.54 540 1.54
 124  0.500  0.584  0.330- 574 1.53 501 1.53 549 1.55 541 1.55
 125  0.500  0.584  0.835- 408 1.54 502 1.54 550 1.55 542 1.55
 126  0.500  0.833  0.333- 409 1.54 551 1.54 543 1.54 503 1.55
 127  0.500  0.833  0.833- 410 1.54 504 1.54 552 1.54 544 1.54
 128  0.667  0.083  0.333- 411 1.54 545 1.54 505 1.54 553 1.54
 129  0.667  0.083  0.833- 546 1.54 554 1.54 412 1.54 506 1.55
 130  0.667  0.333  0.333- 507 1.54 547 1.54 555 1.54 413 1.55
 131  0.667  0.333  0.834- 414 1.54 508 1.54 556 1.54 548 1.54
 132  0.667  0.583  0.333- 557 1.54 509 1.54 549 1.54 415 1.55
 133  0.667  0.584  0.834- 550 1.53 416 1.54 510 1.54 558 1.54
 134  0.667  0.833  0.333- 551 1.54 417 1.54 559 1.54 511 1.55
 135  0.667  0.833  0.833- 418 1.54 560 1.54 552 1.54 512 1.54
 136  0.833  0.083  0.333- 419 1.54 553 1.54 513 1.54 561 1.54
 137  0.833  0.083  0.833- 420 1.54 562 1.54 554 1.54 514 1.54
 138  0.833  0.333  0.333- 421 1.54 515 1.54 555 1.54 563 1.54
 139  0.833  0.333  0.833- 422 1.54 564 1.54 556 1.54 516 1.54
 140  0.833  0.583  0.333- 557 1.54 423 1.54 565 1.54 517 1.54
 141  0.833  0.583  0.833- 566 1.54 518 1.54 558 1.54 424 1.54
 142  0.833  0.833  0.333- 425 1.54 559 1.54 567 1.54 519 1.54
 143  0.833  0.833  0.833- 568 1.54 426 1.54 520 1.54 560 1.54
 144  0.083  0.208  0.333- 427 1.54 481 1.54 523 1.54 473 1.54
 145  0.083  0.208  0.833- 428 1.54 482 1.54 474 1.54 524 1.54
 146  0.083  0.458  0.333- 429 1.54 483 1.54 525 1.54 475 1.55
 147  0.083  0.458  0.833- 430 1.54 526 1.54 484 1.54 476 1.54
 148  0.083  0.708  0.333- 431 1.54 485 1.54 477 1.54 527 1.54
 149  0.083  0.708  0.833- 432 1.54 528 1.54 486 1.54 478 1.54
 150  0.083  0.958  0.333- 433 1.54 487 1.54 521 1.54 479 1.54
 151  0.083  0.958  0.833- 434 1.54 522 1.54 488 1.54 480 1.54
 152  0.250  0.208  0.333- 531 1.54 435 1.54 489 1.54 481 1.54
 153  0.250  0.208  0.833- 436 1.54 482 1.54 490 1.54 532 1.54
 154  0.250  0.458  0.333- 491 1.54 533 1.54 483 1.54 437 1.55
 155  0.250  0.458  0.834- 438 1.54 492 1.54 484 1.54 534 1.54
 156  0.250  0.708  0.333- 493 1.54 439 1.54 485 1.54 535 1.54
 157  0.250  0.708  0.833- 536 1.54 486 1.54 440 1.54 494 1.54
 158  0.250  0.958  0.333- 441 1.54 495 1.54 487 1.54 529 1.54
 159  0.250  0.958  0.833- 442 1.54 488 1.54 496 1.54 530 1.54
 160  0.417  0.208  0.333- 539 1.54 443 1.54 489 1.54 497 1.54
 161  0.417  0.208  0.833- 490 1.54 498 1.54 540 1.54 444 1.54
 162  0.416  0.458  0.330- 575 1.53 491 1.53 499 1.55 541 1.55
 163  0.416  0.458  0.835- 445 1.54 492 1.54 500 1.55 542 1.55
 164  0.417  0.708  0.333- 501 1.54 493 1.54 543 1.54 446 1.55
 165  0.417  0.708  0.834- 447 1.54 502 1.54 494 1.54 544 1.54
 166  0.417  0.958  0.333- 448 1.54 495 1.54 503 1.54 537 1.54
 167  0.417  0.958  0.833- 449 1.54 496 1.54 504 1.54 538 1.54
 168  0.583  0.208  0.333- 547 1.54 450 1.54 505 1.54 497 1.54
 169  0.583  0.208  0.833- 506 1.54 498 1.54 548 1.54 451 1.54
 170  0.584  0.458  0.330- 576 1.53 507 1.53 499 1.55 549 1.55
 171  0.584  0.458  0.835- 452 1.54 508 1.54 500 1.55 550 1.55
 172  0.583  0.708  0.333- 501 1.54 509 1.54 551 1.54 453 1.55
 173  0.583  0.708  0.834- 454 1.54 502 1.54 510 1.54 552 1.54
 174  0.583  0.958  0.333- 455 1.54 511 1.54 503 1.54 545 1.54
 175  0.583  0.958  0.833- 456 1.54 512 1.54 504 1.54 546 1.54
 176  0.750  0.208  0.333- 555 1.54 457 1.54 505 1.54 513 1.54
 177  0.750  0.208  0.833- 458 1.54 514 1.54 506 1.54 556 1.54
 178  0.750  0.458  0.333- 507 1.54 557 1.54 515 1.54 459 1.55
 179  0.750  0.458  0.834- 460 1.54 508 1.54 516 1.54 558 1.54
 180  0.750  0.708  0.333- 509 1.54 461 1.54 517 1.54 559 1.54
 181  0.750  0.708  0.833- 560 1.54 518 1.54 462 1.54 510 1.54
 182  0.750  0.958  0.333- 463 1.54 511 1.54 519 1.54 553 1.54
 183  0.750  0.958  0.833- 464 1.54 520 1.54 512 1.54 554 1.54
 184  0.917  0.208  0.333- 465 1.54 513 1.54 563 1.54 473 1.54
 185  0.917  0.208  0.833- 466 1.54 514 1.54 474 1.54 564 1.54
 186  0.917  0.458  0.333- 467 1.54 515 1.54 565 1.54 475 1.55
 187  0.917  0.458  0.833- 468 1.54 566 1.54 516 1.54 476 1.54
 188  0.917  0.708  0.333- 469 1.54 517 1.54 477 1.54 567 1.54
 189  0.917  0.708  0.833- 470 1.54 568 1.54 518 1.54 478 1.54
 190  0.917  0.958  0.333- 471 1.54 519 1.54 561 1.54 479 1.54
 191  0.917  0.958  0.833- 472 1.54 562 1.54 520 1.54 480 1.54
 192  0.000  0.167  0.167- 473 1.54 287 1.54 372 1.54 332 1.54
 193  0.000  0.167  0.667- 474 1.54 373 1.54 333 1.54 288 1.54
 194  0.000  0.417  0.167- 374 1.54 334 1.54 289 1.54 475 1.54
 195  0.000  0.417  0.667- 290 1.54 476 1.54 375 1.55 335 1.55
 196  0.000  0.667  0.167- 376 1.54 336 1.54 291 1.54 477 1.54
 197  0.000  0.667  0.667- 478 1.54 292 1.54 377 1.55 337 1.55
 198  0.000  0.917  0.167- 479 1.54 378 1.54 338 1.54 285 1.54
 199  0.000  0.917  0.667- 480 1.54 286 1.54 379 1.54 339 1.54
 200  0.167  0.167  0.167- 295 1.54 481 1.54 340 1.54 332 1.54
 201  0.167  0.167  0.667- 482 1.54 341 1.54 296 1.54 333 1.55
 202  0.167  0.417  0.167- 334 1.54 297 1.54 342 1.54 483 1.54
 203  0.167  0.417  0.667- 298 1.54 343 1.54 484 1.54 335 1.55
 204  0.167  0.667  0.167- 344 1.54 485 1.54 336 1.54 299 1.54
 205  0.167  0.667  0.667- 486 1.54 300 1.54 337 1.54 345 1.55
 206  0.167  0.917  0.167- 346 1.54 487 1.54 293 1.54 338 1.54
 207  0.167  0.917  0.667- 488 1.54 339 1.54 294 1.55 347 1.55
 208  0.333  0.167  0.167- 303 1.54 340 1.54 489 1.54 348 1.54
 209  0.333  0.167  0.667- 349 1.54 490 1.54 341 1.55 304 1.55
 210  0.333  0.417  0.166- 491 1.54 342 1.54 305 1.55 350 1.55
 211  0.333  0.417  0.667- 306 1.54 351 1.54 343 1.55 492 1.55
 212  0.333  0.667  0.167- 493 1.54 307 1.54 352 1.54 344 1.54
 213  0.334  0.666  0.667- 345 1.54 494 1.55 308 1.55 353 1.56
 214  0.333  0.917  0.167- 354 1.54 495 1.54 346 1.54 301 1.54
 215  0.333  0.917  0.667- 496 1.54 347 1.54 355 1.54 302 1.55
 216  0.500  0.167  0.167- 311 1.54 497 1.54 356 1.54 348 1.54
 217  0.500  0.167  0.667- 498 1.54 357 1.54 349 1.54 312 1.55
 218  0.500  0.416  0.166- 499 1.54 358 1.54 350 1.54 313 1.55
 219  0.500  0.667  0.166- 501 1.54 314 1.54 360 1.54 352 1.54
 220  0.500  0.667  0.667- 361 1.54 353 1.54 315 1.55 502 1.55
 221  0.500  0.917  0.167- 362 1.54 354 1.54 503 1.54 309 1.54
 222  0.500  0.917  0.667- 504 1.54 363 1.54 355 1.54 310 1.55
 223  0.667  0.167  0.167- 318 1.54 364 1.54 505 1.54 356 1.54
 224  0.667  0.167  0.667- 357 1.54 506 1.54 365 1.55 319 1.55
 225  0.667  0.417  0.166- 507 1.54 366 1.54 320 1.55 358 1.55
 226  0.667  0.417  0.667- 321 1.54 359 1.54 367 1.55 508 1.55
 227  0.667  0.667  0.167- 509 1.54 322 1.54 360 1.54 368 1.54
 228  0.666  0.666  0.667- 369 1.54 510 1.55 323 1.55 361 1.56
 229  0.667  0.917  0.167- 362 1.54 511 1.54 370 1.54 316 1.54
 230  0.667  0.917  0.667- 512 1.54 371 1.54 363 1.54 317 1.55
 231  0.833  0.167  0.167- 326 1.54 513 1.54 364 1.54 372 1.54
 232  0.833  0.167  0.667- 514 1.54 365 1.54 327 1.54 373 1.55
 233  0.833  0.417  0.167- 374 1.54 328 1.54 366 1.54 515 1.54
 234  0.833  0.417  0.667- 329 1.54 367 1.54 516 1.54 375 1.55
 235  0.833  0.667  0.167- 368 1.54 517 1.54 376 1.54 330 1.54
 236  0.833  0.667  0.667- 518 1.54 331 1.54 377 1.54 369 1.55
 237  0.833  0.917  0.167- 370 1.54 519 1.54 324 1.54 378 1.54
 238  0.833  0.917  0.667- 520 1.54 379 1.54 325 1.55 371 1.55
 239  0.083  0.042  0.167- 521 1.54 293 1.54 332 1.54 285 1.54
 240  0.083  0.042  0.667- 522 1.54 294 1.54 286 1.54 333 1.54
 241  0.083  0.292  0.167- 295 1.54 523 1.54 334 1.54 287 1.54
 242  0.083  0.292  0.667- 524 1.54 335 1.54 296 1.54 288 1.55
 243  0.083  0.542  0.167- 297 1.54 289 1.54 525 1.54 336 1.54
 244  0.084  0.542  0.667- 337 1.54 526 1.54 290 1.55 298 1.55
 245  0.083  0.792  0.167- 299 1.54 527 1.54 338 1.54 291 1.54
 246  0.083  0.792  0.667- 528 1.54 339 1.54 292 1.54 300 1.55
 247  0.250  0.042  0.167- 340 1.54 529 1.54 301 1.54 293 1.54
 248  0.250  0.042  0.667- 530 1.54 302 1.54 294 1.54 341 1.55
 249  0.250  0.292  0.167- 295 1.54 303 1.54 342 1.54 531 1.54
 250  0.250  0.292  0.667- 304 1.54 343 1.54 532 1.54 296 1.55
 251  0.250  0.542  0.167- 533 1.54 297 1.54 305 1.54 344 1.54
 252  0.251  0.542  0.667- 345 1.54 534 1.55 298 1.55 306 1.56
 253  0.250  0.792  0.167- 307 1.54 535 1.54 346 1.54 299 1.54
 254  0.250  0.791  0.667- 300 1.54 536 1.54 347 1.55 308 1.55
 255  0.417  0.042  0.167- 348 1.54 301 1.54 537 1.54 309 1.54
 256  0.417  0.042  0.667- 538 1.54 302 1.54 310 1.54 349 1.55
 257  0.417  0.292  0.167- 539 1.54 303 1.54 350 1.54 311 1.54
 258  0.417  0.292  0.667- 312 1.54 540 1.55 304 1.55 351 1.56
 259  0.416  0.542  0.166- 541 1.54 305 1.54 352 1.54 313 1.55
 260  0.417  0.792  0.167- 354 1.54 307 1.54 314 1.54 543 1.54
 261  0.417  0.792  0.667- 308 1.54 315 1.54 544 1.54 355 1.55
 262  0.583  0.042  0.167- 356 1.54 316 1.54 545 1.54 309 1.54
 263  0.583  0.042  0.667- 546 1.54 317 1.54 310 1.54 357 1.55
 264  0.583  0.292  0.167- 547 1.54 318 1.54 358 1.54 311 1.54
 265  0.583  0.292  0.667- 312 1.54 548 1.55 319 1.55 359 1.56
 266  0.584  0.542  0.166- 549 1.54 320 1.54 360 1.54 313 1.55
 267  0.583  0.792  0.167- 362 1.54 322 1.54 314 1.54 551 1.54
 268  0.583  0.792  0.667- 323 1.54 315 1.54 552 1.54 363 1.55
 269  0.750  0.042  0.167- 364 1.54 553 1.54 316 1.54 324 1.54
 270  0.750  0.042  0.667- 554 1.54 317 1.54 325 1.54 365 1.55
 271  0.750  0.292  0.167- 326 1.54 318 1.54 366 1.54 555 1.54
 272  0.750  0.292  0.667- 319 1.54 367 1.54 556 1.54 327 1.55
 273  0.750  0.542  0.167- 557 1.54 328 1.54 320 1.54 368 1.54
 274  0.749  0.542  0.667- 369 1.54 558 1.55 329 1.55 321 1.56
 275  0.750  0.792  0.167- 322 1.54 559 1.54 370 1.54 330 1.54
 276  0.750  0.791  0.667- 331 1.54 560 1.54 371 1.55 323 1.55
 277  0.917  0.042  0.167- 561 1.54 324 1.54 372 1.54 285 1.54
 278  0.917  0.042  0.667- 562 1.54 325 1.54 286 1.54 373 1.54
 279  0.917  0.292  0.167- 326 1.54 563 1.54 374 1.54 287 1.54
 280  0.917  0.292  0.667- 564 1.54 375 1.54 327 1.54 288 1.55
 281  0.917  0.542  0.167- 328 1.54 289 1.54 565 1.54 376 1.54
 282  0.916  0.542  0.667- 377 1.54 566 1.54 290 1.55 329 1.55
 283  0.917  0.792  0.167- 330 1.54 567 1.54 378 1.54 291 1.54
 284  0.917  0.792  0.667- 568 1.54 379 1.54 292 1.54 331 1.55
 285  0.000  0.000  0.125-   1 1.54 198 1.54 277 1.54 239 1.54
 286  0.000  0.000  0.625-   2 1.54 199 1.54 278 1.54 240 1.54
 287  0.000  0.250  0.125-   3 1.54 192 1.54 279 1.54 241 1.54
 288  0.000  0.250  0.625-   4 1.54 193 1.54 280 1.55 242 1.55
 289  0.000  0.500  0.125- 281 1.54 243 1.54   5 1.54 194 1.54
 290  0.000  0.500  0.625-   6 1.54 195 1.54 282 1.55 244 1.55
 291  0.000  0.750  0.125-   7 1.54 196 1.54 283 1.54 245 1.54
 292  0.000  0.750  0.625-   8 1.54 197 1.54 284 1.54 246 1.54
 293  0.167  0.000  0.125-   9 1.54 239 1.54 247 1.54 206 1.54
 294  0.167  0.000  0.625-  10 1.54 240 1.54 248 1.54 207 1.55
 295  0.167  0.250  0.125- 249 1.54  11 1.54 241 1.54 200 1.54
 296  0.167  0.250  0.625-  12 1.54 242 1.54 201 1.54 250 1.55
 297  0.167  0.500  0.125- 243 1.54  13 1.54 251 1.54 202 1.54
 298  0.167  0.500  0.625- 203 1.54  14 1.54 244 1.55 252 1.55
 299  0.167  0.750  0.125- 245 1.54  15 1.54 204 1.54 253 1.54
 300  0.167  0.750  0.625-  16 1.54 254 1.54 205 1.54 246 1.55
 301  0.333  0.000  0.125-  17 1.54 255 1.54 247 1.54 214 1.54
 302  0.333  0.000  0.625-  18 1.54 256 1.54 248 1.54 215 1.55
 303  0.333  0.250  0.125-  19 1.54 208 1.54 257 1.54 249 1.54
 304  0.334  0.250  0.625- 250 1.54  20 1.54 258 1.55 209 1.55
 305  0.333  0.500  0.125-  21 1.54 259 1.54 251 1.54 210 1.55
 306  0.335  0.500  0.625- 211 1.54  22 1.55 572 1.55 252 1.56
 307  0.333  0.750  0.125-  23 1.54 253 1.54 212 1.54 260 1.54
 308  0.334  0.750  0.625- 261 1.54  24 1.54 254 1.55 213 1.55
 309  0.500  0.000  0.125-  25 1.54 262 1.54 255 1.54 221 1.54
 310  0.500  0.000  0.625-  26 1.54 263 1.54 256 1.54 222 1.55
 311  0.500  0.250  0.125-  27 1.54 216 1.54 264 1.54 257 1.54
 312  0.500  0.250  0.625- 265 1.54 258 1.54  28 1.54 217 1.55
 313  0.500  0.500  0.125-  29 1.54 266 1.55 259 1.55 218 1.55
 314  0.500  0.750  0.125- 219 1.54  30 1.54 267 1.54 260 1.54
 315  0.500  0.750  0.625- 268 1.54 261 1.54  31 1.54 220 1.55
 316  0.667  0.000  0.125-  32 1.54 262 1.54 269 1.54 229 1.54
 317  0.667  0.000  0.625-  33 1.54 263 1.54 270 1.54 230 1.55
 318  0.667  0.250  0.125-  34 1.54 223 1.54 264 1.54 271 1.54
 319  0.666  0.250  0.625- 272 1.54  35 1.54 265 1.55 224 1.55
 320  0.667  0.500  0.125-  36 1.54 266 1.54 273 1.54 225 1.55
 321  0.665  0.500  0.625- 226 1.54  37 1.55 573 1.55 274 1.56
 322  0.667  0.750  0.125-  38 1.54 275 1.54 227 1.54 267 1.54
 323  0.666  0.750  0.625- 268 1.54  39 1.54 276 1.55 228 1.55
 324  0.833  0.000  0.125-  40 1.54 277 1.54 269 1.54 237 1.54
 325  0.833  0.000  0.625-  41 1.54 278 1.54 270 1.54 238 1.55
 326  0.833  0.250  0.125- 271 1.54  42 1.54 279 1.54 231 1.54
 327  0.833  0.250  0.625-  43 1.54 280 1.54 232 1.54 272 1.55
 328  0.833  0.500  0.125- 281 1.54  44 1.54 273 1.54 233 1.54
 329  0.833  0.500  0.625- 234 1.54  45 1.54 282 1.55 274 1.55
 330  0.833  0.750  0.125- 283 1.54  46 1.54 235 1.54 275 1.54
 331  0.833  0.750  0.625-  47 1.54 276 1.54 236 1.54 284 1.55
 332  0.083  0.125  0.125-  48 1.54 239 1.54 192 1.54 200 1.54
 333  0.083  0.125  0.625-  49 1.54 193 1.54 240 1.54 201 1.55
 334  0.083  0.375  0.125- 202 1.54 194 1.54 241 1.54  50 1.54
 335  0.083  0.375  0.625-  51 1.54 242 1.54 195 1.55 203 1.55
 336  0.083  0.625  0.125- 196 1.54 204 1.54 243 1.54  52 1.54
 337  0.083  0.625  0.625- 244 1.54  53 1.54 205 1.54 197 1.55
 338  0.083  0.875  0.125-  54 1.54 198 1.54 245 1.54 206 1.54
 339  0.083  0.875  0.625-  55 1.54 246 1.54 207 1.54 199 1.54
 340  0.250  0.125  0.125- 208 1.54 247 1.54  56 1.54 200 1.54
 341  0.250  0.125  0.625-  57 1.54 201 1.54 248 1.55 209 1.55
 342  0.250  0.375  0.125- 210 1.54  58 1.54 249 1.54 202 1.54
 343  0.250  0.375  0.625- 250 1.54 203 1.54  59 1.54 211 1.55
 344  0.250  0.625  0.125-  60 1.54 204 1.54 212 1.54 251 1.54
 345  0.250  0.625  0.625- 252 1.54 213 1.54  61 1.54 205 1.55
 346  0.250  0.875  0.125- 253 1.54 206 1.54  62 1.54 214 1.54
 347  0.250  0.875  0.625-  63 1.54 215 1.54 207 1.55 254 1.55
 348  0.417  0.125  0.125- 255 1.54 216 1.54  64 1.54 208 1.54
 349  0.417  0.125  0.625- 209 1.54  65 1.54 217 1.54 256 1.55
 350  0.417  0.375  0.125-  66 1.54 218 1.54 257 1.54 210 1.55
 351  0.417  0.376  0.625- 211 1.54  67 1.55 571 1.55 258 1.56
 352  0.417  0.625  0.125-  68 1.54 259 1.54 212 1.54 219 1.54
 353  0.418  0.624  0.625- 220 1.54  69 1.55 572 1.55 213 1.56
 354  0.417  0.875  0.125- 260 1.54 221 1.54 214 1.54  70 1.54
 355  0.417  0.875  0.625-  71 1.54 222 1.54 215 1.54 261 1.55
 356  0.583  0.125  0.125- 262 1.54 216 1.54  72 1.54 223 1.54
 357  0.583  0.125  0.625-  73 1.54 224 1.54 217 1.54 263 1.55
 358  0.583  0.375  0.125-  74 1.54 218 1.54 264 1.54 225 1.55
 359  0.583  0.376  0.625- 226 1.54  75 1.55 571 1.55 265 1.56
 360  0.583  0.625  0.125-  76 1.54 266 1.54 227 1.54 219 1.54
 361  0.582  0.624  0.625- 220 1.54  77 1.55 573 1.55 228 1.56
 362  0.583  0.875  0.125- 267 1.54 221 1.54 229 1.54  78 1.54
 363  0.583  0.875  0.625-  79 1.54 222 1.54 230 1.54 268 1.55
 364  0.750  0.125  0.125- 223 1.54 269 1.54  80 1.54 231 1.54
 365  0.750  0.125  0.625-  81 1.54 232 1.54 270 1.55 224 1.55
 366  0.750  0.375  0.125- 225 1.54  82 1.54 271 1.54 233 1.54
 367  0.750  0.375  0.625- 272 1.54 234 1.54  83 1.54 226 1.55
 368  0.750  0.625  0.125-  84 1.54 235 1.54 227 1.54 273 1.54
 369  0.750  0.625  0.625- 274 1.54 228 1.54  85 1.54 236 1.55
 370  0.750  0.875  0.125- 275 1.54 237 1.54  86 1.54 229 1.54
 371  0.750  0.875  0.625-  87 1.54 230 1.54 238 1.55 276 1.55
 372  0.917  0.125  0.125-  88 1.54 277 1.54 192 1.54 231 1.54
 373  0.917  0.125  0.625-  89 1.54 193 1.54 278 1.54 232 1.55
 374  0.917  0.375  0.125- 233 1.54 194 1.54 279 1.54  90 1.54
 375  0.917  0.375  0.625-  91 1.54 280 1.54 195 1.55 234 1.55
 376  0.917  0.625  0.125- 196 1.54 235 1.54 281 1.54  92 1.54
 377  0.917  0.625  0.625- 282 1.54  93 1.54 236 1.54 197 1.55
 378  0.917  0.875  0.125-  94 1.54 198 1.54 283 1.54 237 1.54
 379  0.917  0.875  0.625-  95 1.54 284 1.54 238 1.54 199 1.54
 380  0.000  0.083  0.458-  96 1.54   2 1.54  89 1.54  49 1.54
 381  0.000  0.083  0.958-  97 1.54  88 1.54  48 1.54   1 1.54
 382  0.000  0.333  0.458-  98 1.54   4 1.54  91 1.55  51 1.55
 383  0.000  0.333  0.958-  90 1.54  50 1.54   3 1.54  99 1.54
 384  0.000  0.583  0.458-   6 1.54 100 1.54  93 1.55  53 1.55
 385  0.000  0.583  0.958-  92 1.54  52 1.54   5 1.54 101 1.54
 386  0.000  0.833  0.458- 102 1.54  95 1.54  55 1.54   8 1.54
 387  0.000  0.833  0.958- 103 1.54   7 1.54  94 1.54  54 1.54
 388  0.167  0.083  0.458- 104 1.54  49 1.54  10 1.55  57 1.55
 389  0.167  0.083  0.958-  56 1.54 105 1.54   9 1.54  48 1.54
 390  0.167  0.333  0.458- 106 1.54  12 1.54  51 1.54  59 1.55
 391  0.167  0.333  0.958-  58 1.54 107 1.54  50 1.54  11 1.54
 392  0.167  0.583  0.458-  14 1.54  61 1.54 108 1.54  53 1.55
 393  0.167  0.583  0.958-  52 1.54  13 1.54  60 1.54 109 1.54
 394  0.167  0.833  0.458- 110 1.54  63 1.54  16 1.54  55 1.55
 395  0.167  0.833  0.958-  15 1.54 111 1.54  62 1.54  54 1.54
 396  0.333  0.083  0.458- 112 1.54  57 1.54  65 1.54  18 1.55
 397  0.333  0.083  0.958-  64 1.54 113 1.54  56 1.54  17 1.54
 398  0.334  0.334  0.458-  59 1.54 114 1.55  20 1.55  67 1.56
 399  0.333  0.333  0.958- 115 1.54  19 1.54  66 1.54  58 1.54
 400  0.333  0.583  0.458-  22 1.54  69 1.54  61 1.55 116 1.55
 401  0.333  0.583  0.959- 117 1.54  60 1.54  21 1.55  68 1.55
 402  0.333  0.833  0.458-  71 1.54 118 1.54  63 1.55  24 1.55
 403  0.333  0.833  0.958-  23 1.54  62 1.54 119 1.54  70 1.54
 404  0.500  0.083  0.458- 120 1.54  73 1.54  65 1.54  26 1.55
 405  0.500  0.083  0.958-  72 1.54  64 1.54 121 1.54  25 1.54
 406  0.500  0.333  0.458-  75 1.54  67 1.54  28 1.55 122 1.55
 407  0.500  0.333  0.959- 123 1.54  27 1.54  74 1.54  66 1.54
 408  0.500  0.584  0.959- 125 1.54  76 1.54  68 1.54  29 1.55
 409  0.500  0.833  0.458- 126 1.54  79 1.54  71 1.54  31 1.55
 410  0.500  0.833  0.958-  30 1.54 127 1.54  78 1.54  70 1.54
 411  0.667  0.083  0.458- 128 1.54  81 1.54  73 1.54  33 1.55
 412  0.667  0.083  0.958-  72 1.54 129 1.54  80 1.54  32 1.54
 413  0.666  0.334  0.458-  83 1.54 130 1.55  35 1.55  75 1.56
 414  0.667  0.333  0.958- 131 1.54  34 1.54  74 1.54  82 1.54
 415  0.667  0.583  0.458-  37 1.54  77 1.54  85 1.55 132 1.55
 416  0.667  0.583  0.959- 133 1.54  84 1.54  36 1.55  76 1.55
 417  0.667  0.833  0.458-  79 1.54 134 1.54  87 1.55  39 1.55
 418  0.667  0.833  0.958-  38 1.54  86 1.54 135 1.54  78 1.54
 419  0.833  0.083  0.458- 136 1.54  89 1.54  41 1.55  81 1.55
 420  0.833  0.083  0.958-  80 1.54 137 1.54  40 1.54  88 1.54
 421  0.833  0.333  0.458- 138 1.54  43 1.54  91 1.54  83 1.55
 422  0.833  0.333  0.958-  82 1.54 139 1.54  90 1.54  42 1.54
 423  0.833  0.583  0.458-  45 1.54  85 1.54 140 1.54  93 1.55
 424  0.833  0.583  0.958-  92 1.54  44 1.54  84 1.54 141 1.54
 425  0.833  0.833  0.458- 142 1.54  87 1.54  47 1.54  95 1.55
 426  0.833  0.833  0.958-  46 1.54 143 1.54  86 1.54  94 1.54
 427  0.083  0.208  0.458- 144 1.54  49 1.54   4 1.54  12 1.55
 428  0.083  0.208  0.958-  11 1.54 145 1.54  48 1.54   3 1.54
 429  0.084  0.458  0.458-  51 1.54 146 1.54   6 1.55  14 1.55
 430  0.083  0.458  0.958-  13 1.54   5 1.54 147 1.54  50 1.54
 431  0.083  0.708  0.458- 148 1.54  53 1.54  16 1.54   8 1.55
 432  0.083  0.708  0.958-  15 1.54 149 1.54  52 1.54   7 1.54
 433  0.083  0.958  0.458- 150 1.54  10 1.54   2 1.54  55 1.54
 434  0.083  0.958  0.958- 151 1.54   9 1.54  54 1.54   1 1.54
 435  0.250  0.209  0.458-  12 1.54 152 1.54  57 1.55  20 1.55
 436  0.250  0.208  0.958-  19 1.54 153 1.54  56 1.54  11 1.54
 437  0.251  0.458  0.458-  59 1.54 154 1.55  14 1.55  22 1.56
 438  0.250  0.458  0.958- 155 1.54  13 1.54  21 1.54  58 1.54
 439  0.250  0.708  0.458-  24 1.54  61 1.54 156 1.54  16 1.55
 440  0.250  0.708  0.958-  15 1.54  23 1.54  60 1.54 157 1.54
 441  0.250  0.958  0.458- 158 1.54  18 1.54  10 1.54  63 1.55
 442  0.250  0.958  0.958-  62 1.54 159 1.54  17 1.54   9 1.54
 443  0.417  0.208  0.458-  20 1.54  28 1.54 160 1.54  65 1.55
 444  0.417  0.208  0.958-  64 1.54  19 1.54  27 1.54 161 1.54
 445  0.416  0.458  0.959- 163 1.54  21 1.54  66 1.54  29 1.55
 446  0.417  0.708  0.458-  31 1.54 164 1.55  24 1.55  69 1.56
 447  0.417  0.708  0.958- 165 1.54  23 1.54  68 1.54  30 1.54
 448  0.417  0.958  0.458- 166 1.54  18 1.54  26 1.54  71 1.55
 449  0.417  0.958  0.958-  70 1.54  17 1.54 167 1.54  25 1.54
 450  0.583  0.208  0.458-  35 1.54  28 1.54 168 1.54  73 1.55
 451  0.583  0.208  0.958-  72 1.54  34 1.54  27 1.54 169 1.54
 452  0.584  0.458  0.959- 171 1.54  36 1.54  74 1.54  29 1.55
 453  0.583  0.708  0.458-  31 1.54 172 1.55  39 1.55  77 1.56
 454  0.583  0.708  0.958- 173 1.54  38 1.54  76 1.54  30 1.54
 455  0.583  0.958  0.458- 174 1.54  33 1.54  26 1.54  79 1.55
 456  0.583  0.958  0.958-  78 1.54  32 1.54 175 1.54  25 1.54
 457  0.750  0.209  0.458-  43 1.54 176 1.54  81 1.55  35 1.55
 458  0.750  0.208  0.958-  34 1.54 177 1.54  80 1.54  42 1.54
 459  0.749  0.458  0.458-  83 1.54 178 1.55  45 1.55  37 1.56
 460  0.750  0.458  0.958- 179 1.54  44 1.54  36 1.54  82 1.54
 461  0.750  0.708  0.458-  39 1.54  85 1.54 180 1.54  47 1.55
 462  0.750  0.708  0.958-  46 1.54  38 1.54  84 1.54 181 1.54
 463  0.750  0.958  0.458- 182 1.54  33 1.54  41 1.54  87 1.55
 464  0.750  0.958  0.958-  86 1.54 183 1.54  32 1.54  40 1.54
 465  0.917  0.208  0.458- 184 1.54  89 1.54   4 1.54  43 1.55
 466  0.917  0.208  0.958-  42 1.54 185 1.54  88 1.54   3 1.54
 467  0.916  0.458  0.458-  91 1.54 186 1.54   6 1.55  45 1.55
 468  0.917  0.458  0.958-  44 1.54   5 1.54 187 1.54  90 1.54
 469  0.917  0.708  0.458- 188 1.54  93 1.54  47 1.54   8 1.55
 470  0.917  0.708  0.958-  46 1.54 189 1.54  92 1.54   7 1.54
 471  0.917  0.958  0.458- 190 1.54  41 1.54   2 1.54  95 1.54
 472  0.917  0.958  0.958- 191 1.54  40 1.54  94 1.54   1 1.54
 473  0.000  0.167  0.292- 192 1.54  96 1.54 184 1.54 144 1.54
 474  0.000  0.167  0.792- 193 1.54  97 1.54 185 1.54 145 1.54
 475  0.000  0.417  0.292-  98 1.54 194 1.54 186 1.55 146 1.55
 476  0.000  0.417  0.792- 195 1.54  99 1.54 187 1.54 147 1.54
 477  0.000  0.667  0.292- 196 1.54 100 1.54 188 1.54 148 1.54
 478  0.000  0.667  0.792- 197 1.54 101 1.54 189 1.54 149 1.54
 479  0.000  0.917  0.292- 198 1.54 102 1.54 190 1.54 150 1.54
 480  0.000  0.917  0.792- 199 1.54 103 1.54 191 1.54 151 1.54
 481  0.167  0.167  0.292- 144 1.54 200 1.54 104 1.54 152 1.54
 482  0.167  0.167  0.792- 201 1.54 153 1.54 145 1.54 105 1.54
 483  0.167  0.417  0.292- 146 1.54 106 1.54 154 1.54 202 1.54
 484  0.167  0.417  0.792- 155 1.54 203 1.54 147 1.54 107 1.54
 485  0.167  0.667  0.292- 204 1.54 148 1.54 156 1.54 108 1.54
 486  0.167  0.667  0.792- 205 1.54 109 1.54 157 1.54 149 1.54
 487  0.167  0.917  0.292- 206 1.54 150 1.54 158 1.54 110 1.54
 488  0.167  0.917  0.792- 207 1.54 159 1.54 111 1.54 151 1.54
 489  0.333  0.167  0.292- 208 1.54 152 1.54 160 1.54 112 1.54
 490  0.333  0.167  0.792- 161 1.54 209 1.54 153 1.54 113 1.55
 491  0.333  0.416  0.291- 162 1.53 210 1.54 114 1.54 154 1.54
 492  0.333  0.417  0.792- 155 1.54 115 1.54 163 1.54 211 1.55
 493  0.333  0.667  0.291- 212 1.54 116 1.54 156 1.54 164 1.54
 494  0.333  0.667  0.792- 117 1.54 165 1.54 157 1.54 213 1.55
 495  0.333  0.917  0.292- 166 1.54 158 1.54 214 1.54 118 1.55
 496  0.333  0.917  0.792- 215 1.54 167 1.54 119 1.54 159 1.54
 497  0.500  0.167  0.292- 216 1.54 120 1.54 168 1.54 160 1.54
 498  0.500  0.167  0.792- 217 1.54 169 1.54 161 1.54 121 1.55
 499  0.500  0.416  0.290- 218 1.54 122 1.54 170 1.55 162 1.55
 500  0.500  0.416  0.795- 571 1.53 123 1.53 171 1.55 163 1.55
 501  0.500  0.667  0.290- 124 1.53 219 1.54 172 1.54 164 1.54
 502  0.500  0.667  0.792- 173 1.54 165 1.54 125 1.54 220 1.55
 503  0.500  0.917  0.292- 221 1.54 174 1.54 166 1.54 126 1.55
 504  0.500  0.917  0.792- 222 1.54 127 1.54 175 1.54 167 1.54
 505  0.667  0.167  0.292- 223 1.54 176 1.54 168 1.54 128 1.54
 506  0.667  0.167  0.792- 169 1.54 224 1.54 177 1.54 129 1.55
 507  0.667  0.416  0.291- 170 1.53 225 1.54 130 1.54 178 1.54
 508  0.667  0.417  0.792- 179 1.54 131 1.54 171 1.54 226 1.55
 509  0.667  0.667  0.291- 227 1.54 132 1.54 180 1.54 172 1.54
 510  0.667  0.667  0.792- 133 1.54 173 1.54 181 1.54 228 1.55
 511  0.667  0.917  0.292- 174 1.54 182 1.54 229 1.54 134 1.55
 512  0.667  0.917  0.792- 230 1.54 175 1.54 135 1.54 183 1.54
 513  0.833  0.167  0.292- 184 1.54 231 1.54 136 1.54 176 1.54
 514  0.833  0.167  0.792- 232 1.54 177 1.54 185 1.54 137 1.54
 515  0.833  0.417  0.292- 186 1.54 138 1.54 178 1.54 233 1.54
 516  0.833  0.417  0.792- 179 1.54 234 1.54 187 1.54 139 1.54
 517  0.833  0.667  0.292- 235 1.54 188 1.54 180 1.54 140 1.54
 518  0.833  0.667  0.792- 236 1.54 141 1.54 181 1.54 189 1.54
 519  0.833  0.917  0.292- 237 1.54 190 1.54 182 1.54 142 1.54
 520  0.833  0.917  0.792- 238 1.54 183 1.54 143 1.54 191 1.54
 521  0.083  0.042  0.292- 239 1.54 150 1.54 104 1.54  96 1.54
 522  0.083  0.042  0.792- 240 1.54 105 1.54 151 1.54  97 1.54
 523  0.083  0.292  0.292- 241 1.54 144 1.54 106 1.54  98 1.54
 524  0.083  0.292  0.792- 242 1.54 107 1.54  99 1.54 145 1.54
 525  0.083  0.542  0.292- 243 1.54 146 1.54 108 1.54 100 1.54
 526  0.083  0.542  0.792- 244 1.54 109 1.54 147 1.54 101 1.55
 527  0.083  0.792  0.292- 245 1.54 110 1.54 102 1.54 148 1.54
 528  0.083  0.792  0.792- 246 1.54 111 1.54 149 1.54 103 1.54
 529  0.250  0.042  0.292- 247 1.54 104 1.54 112 1.54 158 1.54
 530  0.250  0.042  0.792- 248 1.54 113 1.54 105 1.54 159 1.54
 531  0.250  0.292  0.292- 152 1.54 106 1.54 249 1.54 114 1.54
 532  0.250  0.292  0.792- 115 1.54 250 1.54 107 1.54 153 1.54
 533  0.250  0.542  0.291- 251 1.54 116 1.54 108 1.54 154 1.54
 534  0.250  0.542  0.792- 117 1.54 155 1.54 109 1.54 252 1.55
 535  0.250  0.792  0.292- 253 1.54 110 1.54 118 1.54 156 1.54
 536  0.250  0.792  0.792- 157 1.54 254 1.54 119 1.54 111 1.54
 537  0.417  0.042  0.292- 255 1.54 112 1.54 120 1.54 166 1.54
 538  0.417  0.042  0.792- 256 1.54 113 1.54 121 1.54 167 1.54
 539  0.417  0.292  0.291- 257 1.54 122 1.54 114 1.54 160 1.54
 540  0.417  0.292  0.792- 123 1.54 115 1.54 161 1.54 258 1.55
 541  0.416  0.542  0.290- 259 1.54 116 1.54 124 1.55 162 1.55
 542  0.416  0.542  0.795- 572 1.53 117 1.53 125 1.55 163 1.55
 543  0.417  0.792  0.292- 118 1.54 126 1.54 164 1.54 260 1.54
 544  0.417  0.792  0.792- 165 1.54 261 1.54 119 1.54 127 1.54
 545  0.583  0.042  0.292- 262 1.54 128 1.54 120 1.54 174 1.54
 546  0.583  0.042  0.792- 263 1.54 129 1.54 121 1.54 175 1.54
 547  0.583  0.292  0.291- 264 1.54 122 1.54 130 1.54 168 1.54
 548  0.583  0.292  0.792- 123 1.54 131 1.54 169 1.54 265 1.55
 549  0.584  0.542  0.290- 266 1.54 132 1.54 124 1.55 170 1.55
 550  0.584  0.542  0.795- 573 1.53 133 1.53 125 1.55 171 1.55
 551  0.583  0.792  0.292- 134 1.54 126 1.54 172 1.54 267 1.54
 552  0.583  0.792  0.792- 173 1.54 268 1.54 135 1.54 127 1.54
 553  0.750  0.042  0.292- 269 1.54 136 1.54 128 1.54 182 1.54
 554  0.750  0.042  0.792- 270 1.54 129 1.54 137 1.54 183 1.54
 555  0.750  0.292  0.292- 176 1.54 138 1.54 271 1.54 130 1.54
 556  0.750  0.292  0.792- 131 1.54 272 1.54 139 1.54 177 1.54
 557  0.750  0.542  0.291- 273 1.54 132 1.54 140 1.54 178 1.54
 558  0.750  0.542  0.792- 133 1.54 179 1.54 141 1.54 274 1.55
 559  0.750  0.792  0.292- 275 1.54 142 1.54 134 1.54 180 1.54
 560  0.750  0.792  0.792- 181 1.54 276 1.54 135 1.54 143 1.54
 561  0.917  0.042  0.292- 277 1.54 190 1.54 136 1.54  96 1.54
 562  0.917  0.042  0.792- 278 1.54 137 1.54 191 1.54  97 1.54
 563  0.917  0.292  0.292- 279 1.54 184 1.54 138 1.54  98 1.54
 564  0.917  0.292  0.792- 280 1.54 139 1.54  99 1.54 185 1.54
 565  0.917  0.542  0.292- 281 1.54 186 1.54 140 1.54 100 1.54
 566  0.917  0.542  0.792- 282 1.54 141 1.54 187 1.54 101 1.55
 567  0.917  0.792  0.292- 283 1.54 142 1.54 102 1.54 188 1.54
 568  0.917  0.792  0.792- 284 1.54 143 1.54 189 1.54 103 1.54
 569  0.500  0.500  0.481- 574 1.48 576 1.48 575 1.48
 570  0.500  0.500  0.644- 571 1.48 573 1.48 572 1.48
 571  0.500  0.417  0.671- 570 1.48 500 1.53 359 1.55 351 1.55
 572  0.417  0.541  0.671- 570 1.48 542 1.53 353 1.55 306 1.55
 573  0.583  0.541  0.671- 570 1.48 550 1.53 361 1.55 321 1.55
 574  0.500  0.583  0.454- 569 1.48 124 1.53  77 1.55  69 1.55
 575  0.417  0.459  0.454- 569 1.48 162 1.53  67 1.55  22 1.55
 576  0.583  0.459  0.454- 569 1.48 170 1.53  75 1.55  37 1.55
 
  LATTYP: Found a simple orthorhombic cell.
 ALAT       =    12.3557996750
 B/A-ratio  =     1.2247365795
 C/A-ratio  =     1.4142023056
  
  Lattice vectors:
  
 A1 = (   0.0000000000,   0.0000000000,  12.3557996750)
 A2 = (  15.1325998306,   0.0000000000,   0.0000000000)
 A3 = (   0.0000000000,  17.4736003876,   0.0000000000)


Analysis of symmetry for initial positions (statically):
=====================================================================
 Subroutine PRICEL returns:
 Original cell was already a primitive cell.
 

 Routine SETGRP: Setting up the symmetry group for a 
 simple orthorhombic supercell.


 Subroutine GETGRP returns: Found  4 space group operations
 (whereof  2 operations were pure point group operations)
 out of a pool of  8 trial point group operations.


The static configuration has the point symmetry C_1h.
 The point group associated with its full space group is C_2h.


Analysis of symmetry for dynamics (positions and initial velocities):
=====================================================================
 Subroutine PRICEL returns:
 Original cell was already a primitive cell.
 

 Routine SETGRP: Setting up the symmetry group for a 
 simple orthorhombic supercell.


 Subroutine GETGRP returns: Found  4 space group operations
 (whereof  2 operations were pure point group operations)
 out of a pool of  8 trial point group operations.


The dynamic configuration has the point symmetry C_1h.
 The point group associated with its full space group is C_2h.


Analysis of structural, dynamic, and magnetic symmetry:
=====================================================================
 Subroutine PRICEL returns:
 Original cell was already a primitive cell.
 

 Routine SETGRP: Setting up the symmetry group for a 
 simple orthorhombic supercell.


 Subroutine GETGRP returns: Found  4 space group operations
 (whereof  2 operations were pure point group operations)
 out of a pool of  8 trial point group operations.


The overall configuration has the point symmetry C_1h.
 The point group associated with its full space group is C_2h.


 Subroutine INISYM returns: Found  4 space group operations
 (whereof  2 operations are pure point group operations),
 and found     1 'primitive' translations


----------------------------------------------------------------------------------------

                                     Primitive cell                                     

  volume of cell :    3267.1329

  direct lattice vectors                    reciprocal lattice vectors
    15.132599831  0.000000000  0.000000000     0.066082498  0.000000000  0.000000000
     0.000000000 17.473600388  0.000000000     0.000000000  0.057229190  0.000000000
     0.000000000  0.000000000 12.355799675     0.000000000  0.000000000  0.080933653

  length of vectors
    15.132599831 17.473600388 12.355799675     0.066082498  0.057229190  0.080933653

  position of ions in fractional coordinates (direct lattice)
     0.000000000  0.999995765  0.000012559
     0.000000000  0.999999383  0.500022601
     0.000000000  0.249985822  0.000032152
     0.000000000  0.250021280  0.500025844
     0.000000000  0.499998966  0.000002388
     0.000000000  0.500024148  0.500036252
     0.000000000  0.750014711  0.999988545
     0.000000000  0.749987302  0.500036549
     0.166652204  0.999996271  0.000018248
     0.166712698  0.999994677  0.500035859
     0.166618663  0.249959685  0.000010995
     0.166742445  0.250078848  0.500037073
     0.166534090  0.500001093  0.000029859
     0.167079853  0.500061236  0.500033087
     0.166614950  0.750039427  0.000010993
     0.166713141  0.749944387  0.500026139
     0.333328588  0.999993554  0.000013220
     0.333373095  0.999988604  0.500034641
     0.333275127  0.249889070  0.000039821
     0.333630910  0.250349344  0.500033160
     0.333076285  0.500002101  0.000243260
     0.334696067  0.500394642  0.499748319
     0.333273737  0.750103531  0.000026003
     0.333521426  0.749595008  0.500028451
     0.500000000  0.999988865  0.000010933
     0.500000000  0.999981937  0.500030549
     0.500000000  0.249815579  0.000281522
     0.500000000  0.250106745  0.499984357
     0.500000000  0.499997530  0.000286791
     0.500000000  0.750157659  0.999903959
     0.500000000  0.749740529  0.500010267
     0.666671442  0.999993554  0.000013220
     0.666626935  0.999988604  0.500034641
     0.666724903  0.249889070  0.000039821
     0.666369120  0.250349344  0.500033160
     0.666923745  0.500002101  0.000243260
     0.665303963  0.500394642  0.499748319
     0.666726293  0.750103531  0.000026003
     0.666478604  0.749595008  0.500028451
     0.833347781  0.999996271  0.000018248
     0.833287287  0.999994677  0.500035859
     0.833381322  0.249959685  0.000010995
     0.833257540  0.250078848  0.500037073
     0.833465895  0.500001093  0.000029859
     0.832920132  0.500061236  0.500033087
     0.833385035  0.750039427  0.000010993
     0.833286844  0.749944387  0.500026139
     0.083321828  0.124984169  0.000020832
     0.083354627  0.125020066  0.500026184
     0.083282982  0.374984301  0.000002565
     0.083402573  0.375039946  0.500029077
     0.083278642  0.625021358  0.999995314
     0.083372710  0.624979722  0.500023989
     0.083320084  0.875012222  0.999995568
     0.083351837  0.874983767  0.500020843
     0.249978055  0.124960397  0.000012907
     0.250098371  0.125100772  0.500031764
     0.249833836  0.374907474  0.999905894
     0.250254186  0.375144158  0.500016859
     0.249807010  0.625095980  0.000275218
     0.250105050  0.624930678  0.499965460
     0.249979207  0.875025029  0.000001035
     0.250068357  0.874872005  0.500031479
     0.416661142  0.124946803  0.000012959
     0.416694392  0.125062727  0.500024387
     0.416541933  0.374771930  0.000245015
     0.417732192  0.375842495  0.499761865
     0.416523848  0.625216201  0.000240369
     0.416958634  0.623773210  0.499726454
     0.416659668  0.875043771  0.999992749
     0.416701928  0.874891588  0.500020629
     0.583338828  0.124946803  0.000012959
     0.583305578  0.125062727  0.500024387
     0.583458037  0.374771930  0.000245015
     0.582267778  0.375842495  0.499761865
     0.583476122  0.625216201  0.000240369
     0.583041336  0.623773210  0.499726454
     0.583340302  0.875043771  0.999992749
     0.583298042  0.874891588  0.500020629
     0.750021945  0.124960397  0.000012907
     0.749901629  0.125100772  0.500031764
     0.750166164  0.374907474  0.999905894
     0.749745814  0.375144158  0.500016859
     0.750192990  0.625095980  0.000275218
     0.749894950  0.624930678  0.499965460
     0.750020793  0.875025029  0.000001035
     0.749931643  0.874872005  0.500031479
     0.916678195  0.124984169  0.000020832
     0.916645396  0.125020066  0.500026184
     0.916717041  0.374984301  0.000002565
     0.916597450  0.375039946  0.500029077
     0.916721381  0.625021358  0.999995314
     0.916627313  0.624979722  0.500023989
     0.916679939  0.875012222  0.999995568
     0.916648186  0.874983767  0.500020843
     0.000000000  0.083328777  0.333356235
     0.000000000  0.083321185  0.833348585
     0.000000000  0.333336886  0.333371540
     0.000000000  0.333323014  0.833341517
     0.000000000  0.583344451  0.333366142
     0.000000000  0.583341100  0.833298139
     0.000000000  0.833346033  0.333341652
     0.000000000  0.833340209  0.833331532
     0.166691513  0.083335181  0.333356896
     0.166673395  0.083321999  0.833332488
     0.166700730  0.333346215  0.333336592
     0.166620975  0.333302121  0.833312722
     0.166647173  0.583352211  0.333307545
     0.166630660  0.583343675  0.833342214
     0.166668992  0.833335171  0.333344308
     0.166679169  0.833328565  0.833306702
     0.333329126  0.083323473  0.333354277
     0.333330020  0.083333154  0.833315118
     0.333376148  0.333374703  0.333044242
     0.333249670  0.333244695  0.833522621
     0.333249321  0.583375621  0.332768531
     0.332874492  0.583552007  0.834499987
     0.333334714  0.833293020  0.333339687
     0.333314188  0.833348243  0.833322530
     0.500000000  0.083303554  0.333377430
     0.500000000  0.083325154  0.833336743
     0.500000000  0.333244745  0.332833114
     0.500000000  0.332869077  0.834517046
     0.500000000  0.583923945  0.330253295
     0.500000000  0.583686419  0.834900327
     0.500000000  0.833306226  0.333336173
     0.500000000  0.833378914  0.833314132
     0.666670904  0.083323473  0.333354277
     0.666670010  0.083333154  0.833315118
     0.666623882  0.333374703  0.333044242
     0.666750360  0.333244695  0.833522621
     0.666750709  0.583375621  0.332768531
     0.667125538  0.583552007  0.834499987
     0.666665316  0.833293020  0.333339687
     0.666685842  0.833348243  0.833322530
     0.833308472  0.083335181  0.333356896
     0.833326590  0.083321999  0.833332488
     0.833299255  0.333346215  0.333336592
     0.833379010  0.333302121  0.833312722
     0.833352812  0.583352211  0.333307545
     0.833369325  0.583343675  0.833342214
     0.833330993  0.833335171  0.333344308
     0.833320816  0.833328565  0.833306702
     0.083357517  0.208332811  0.333370704
     0.083337578  0.208316548  0.833354142
     0.083365469  0.458351737  0.333366729
     0.083326852  0.458333517  0.833338445
     0.083323765  0.708354231  0.333372976
     0.083348736  0.708341807  0.833325634
     0.083351392  0.958337224  0.333356456
     0.083350647  0.958328366  0.833340817
     0.250030611  0.208360741  0.333384497
     0.249985602  0.208312392  0.833372826
     0.250056141  0.458358177  0.333099854
     0.249891623  0.458317886  0.833540085
     0.249966380  0.708351396  0.333342034
     0.249974897  0.708359597  0.833388424
     0.250006762  0.958316461  0.333390474
     0.250000671  0.958340950  0.833360002
     0.416654824  0.208308952  0.333329069
     0.416648016  0.208299180  0.833369502
     0.416083483  0.458037992  0.330284571
     0.416333017  0.458164296  0.834917860
     0.416669879  0.708287757  0.333065434
     0.416615291  0.708427177  0.833513722
     0.416652712  0.958316946  0.333360390
     0.416647034  0.958338732  0.833341557
     0.583345146  0.208308952  0.333329069
     0.583351954  0.208299180  0.833369502
     0.583916487  0.458037992  0.330284571
     0.583666953  0.458164296  0.834917860
     0.583330091  0.708287757  0.333065434
     0.583384679  0.708427177  0.833513722
     0.583347258  0.958316946  0.333360390
     0.583352936  0.958338732  0.833341557
     0.749969389  0.208360741  0.333384497
     0.750014398  0.208312392  0.833372826
     0.749943859  0.458358177  0.333099854
     0.750108377  0.458317886  0.833540085
     0.750033620  0.708351396  0.333342034
     0.750025103  0.708359597  0.833388424
     0.749993238  0.958316461  0.333390474
     0.749999329  0.958340950  0.833360002
     0.916642506  0.208332811  0.333370704
     0.916662445  0.208316548  0.833354142
     0.916634554  0.458351737  0.333366729
     0.916673171  0.458333517  0.833338445
     0.916676258  0.708354231  0.333372976
     0.916651287  0.708341807  0.833325634
     0.916648631  0.958337224  0.333356456
     0.916649376  0.958328366  0.833340817
     0.000000000  0.166659359  0.166684498
     0.000000000  0.166670282  0.666677146
     0.000000000  0.416674193  0.166691749
     0.000000000  0.416683437  0.666661902
     0.000000000  0.666690786  0.166662330
     0.000000000  0.666650744  0.666662251
     0.000000000  0.916676854  0.166662896
     0.000000000  0.916650649  0.666669816
     0.166656375  0.166648053  0.166697525
     0.166704090  0.166710675  0.666682247
     0.166589659  0.416658895  0.166616555
     0.166776117  0.416699227  0.666709443
     0.166563359  0.666725682  0.166736580
     0.166770360  0.666603649  0.666697890
     0.166653154  0.916680613  0.166677429
     0.166716534  0.916620920  0.666677930
     0.333308434  0.166608374  0.166694223
     0.333481426  0.166858396  0.666684830
     0.333039618  0.416523075  0.166011834
     0.333446173  0.416728393  0.667056710
     0.333206337  0.666795224  0.166577850
     0.333608013  0.666123603  0.666829272
     0.333321521  0.916678130  0.166687164
     0.333368870  0.916628161  0.666676583
     0.500000000  0.166566836  0.166733286
     0.500000000  0.166782813  0.666697839
     0.500000000  0.416445819  0.165830186
     0.500000000  0.666973035  0.166013592
     0.500000000  0.666557835  0.666992834
     0.500000000  0.916682323  0.166669783
     0.500000000  0.916637142  0.666662292
     0.666691596  0.166608374  0.166694223
     0.666518604  0.166858396  0.666684830
     0.666960412  0.416523075  0.166011834
     0.666553857  0.416728393  0.667056710
     0.666793693  0.666795224  0.166577850
     0.666392017  0.666123603  0.666829272
     0.666678509  0.916678130  0.166687164
     0.666631160  0.916628161  0.666676583
     0.833343610  0.166648053  0.166697525
     0.833295895  0.166710675  0.666682247
     0.833410326  0.416658895  0.166616555
     0.833223868  0.416699227  0.666709443
     0.833436626  0.666725682  0.166736580
     0.833229625  0.666603649  0.666697890
     0.833346831  0.916680613  0.166677429
     0.833283451  0.916620920  0.666677930
     0.083339548  0.041662538  0.166677376
     0.083365954  0.041658598  0.666671801
     0.083325965  0.291655941  0.166687229
     0.083362646  0.291690717  0.666666214
     0.083286389  0.541684045  0.166674778
     0.083506784  0.541687716  0.666671532
     0.083320971  0.791691361  0.166659451
     0.083368074  0.791641483  0.666664486
     0.249990851  0.041650799  0.166652448
     0.250055140  0.041704670  0.666646395
     0.249952758  0.291614761  0.166583263
     0.250084636  0.291761440  0.666681576
     0.249837473  0.541702423  0.166561604
     0.250637610  0.541716665  0.666797550
     0.249956605  0.791719145  0.166650679
     0.250107925  0.791458227  0.666650821
     0.416650912  0.041642327  0.166674598
     0.416673647  0.041695504  0.666671411
     0.416613973  0.291519747  0.166586636
     0.417045007  0.292140528  0.666818466
     0.416465040  0.541780983  0.165815088
     0.416639538  0.791727339  0.166597694
     0.416698196  0.791551869  0.666688664
     0.583349058  0.041642327  0.166674598
     0.583326323  0.041695504  0.666671411
     0.583385997  0.291519747  0.166586636
     0.582954963  0.292140528  0.666818466
     0.583534930  0.541780983  0.165815088
     0.583360432  0.791727339  0.166597694
     0.583301774  0.791551869  0.666688664
     0.750009149  0.041650799  0.166652448
     0.749944860  0.041704670  0.666646395
     0.750047242  0.291614761  0.166583263
     0.749915364  0.291761440  0.666681576
     0.750162527  0.541702423  0.166561604
     0.749362390  0.541716665  0.666797550
     0.750043395  0.791719145  0.166650679
     0.749892075  0.791458227  0.666650821
     0.916660475  0.041662538  0.166677376
     0.916634069  0.041658598  0.666671801
     0.916674058  0.291655941  0.166687229
     0.916637377  0.291690717  0.666666214
     0.916713634  0.541684045  0.166674778
     0.916493239  0.541687716  0.666671532
     0.916679052  0.791691361  0.166659451
     0.916631949  0.791641483  0.666664486
     0.000000000  0.000004235  0.124987441
     0.000000000  0.000000617  0.624977399
     0.000000000  0.249985289  0.125011455
     0.000000000  0.250012698  0.624963451
     0.000000000  0.500001034  0.124997612
     0.000000000  0.499975852  0.624963748
     0.000000000  0.750014178  0.124967848
     0.000000000  0.749978720  0.624974156
     0.166652204  0.000003729  0.124981752
     0.166712698  0.000005323  0.624964141
     0.166614950  0.249960573  0.124989007
     0.166713141  0.250055613  0.624973861
     0.166534090  0.499998907  0.124970141
     0.167079853  0.499938764  0.624966913
     0.166618663  0.750040315  0.124989005
     0.166742445  0.749921152  0.624962927
     0.333328588  0.000006446  0.124986780
     0.333373095  0.000011396  0.624965359
     0.333273737  0.249896469  0.124973997
     0.333521426  0.250404992  0.624971549
     0.333076285  0.499997899  0.124756740
     0.334696067  0.499605358  0.625251681
     0.333275127  0.750110930  0.124960179
     0.333630910  0.749650656  0.624966840
     0.500000000  0.000011135  0.124989067
     0.500000000  0.000018063  0.624969451
     0.500000000  0.249842341  0.125096041
     0.500000000  0.250259471  0.624989733
     0.500000000  0.500002470  0.124713209
     0.500000000  0.750184421  0.124718478
     0.500000000  0.749893255  0.625015643
     0.666671442  0.000006446  0.124986780
     0.666626935  0.000011396  0.624965359
     0.666726293  0.249896469  0.124973997
     0.666478604  0.250404992  0.624971549
     0.666923745  0.499997899  0.124756740
     0.665303963  0.499605358  0.625251681
     0.666724903  0.750110930  0.124960179
     0.666369120  0.749650656  0.624966840
     0.833347781  0.000003729  0.124981752
     0.833287287  0.000005323  0.624964141
     0.833385035  0.249960573  0.124989007
     0.833286844  0.250055613  0.624973861
     0.833465895  0.499998907  0.124970141
     0.832920132  0.499938764  0.624966913
     0.833381322  0.750040315  0.124989005
     0.833257540  0.749921152  0.624962927
     0.083320084  0.124987778  0.125004432
     0.083351837  0.125016233  0.624979157
     0.083278642  0.374978642  0.125004686
     0.083372710  0.375020278  0.624976011
     0.083282982  0.625015699  0.124997435
     0.083402573  0.624960054  0.624970923
     0.083321828  0.875015831  0.124979168
     0.083354627  0.874979934  0.624973816
     0.249979207  0.124974971  0.124998965
     0.250068357  0.125127995  0.624968521
     0.249807010  0.374904020  0.124724782
     0.250105050  0.375069322  0.625034540
     0.249833836  0.625092526  0.125094106
     0.250254186  0.624855842  0.624983141
     0.249978055  0.875039603  0.124987093
     0.250098371  0.874899228  0.624968236
     0.416659668  0.124956229  0.125007251
     0.416701928  0.125108412  0.624979371
     0.416523848  0.374783799  0.124759631
     0.416958634  0.376226790  0.625273546
     0.416541933  0.625228070  0.124754985
     0.417732192  0.624157505  0.625238135
     0.416661142  0.875053197  0.124987041
     0.416694392  0.874937273  0.624975613
     0.583340302  0.124956229  0.125007251
     0.583298042  0.125108412  0.624979371
     0.583476122  0.374783799  0.124759631
     0.583041336  0.376226790  0.625273546
     0.583458037  0.625228070  0.124754985
     0.582267778  0.624157505  0.625238135
     0.583338828  0.875053197  0.124987041
     0.583305578  0.874937273  0.624975613
     0.750020793  0.124974971  0.124998965
     0.749931643  0.125127995  0.624968521
     0.750192990  0.374904020  0.124724782
     0.749894950  0.375069322  0.625034540
     0.750166164  0.625092526  0.125094106
     0.749745814  0.624855842  0.624983141
     0.750021945  0.875039603  0.124987093
     0.749901629  0.874899228  0.624968236
     0.916679939  0.124987778  0.125004432
     0.916648186  0.125016233  0.624979157
     0.916721381  0.374978642  0.125004686
     0.916627313  0.375020278  0.624976011
     0.916717041  0.625015699  0.124997435
     0.916597450  0.624960054  0.624970923
     0.916678195  0.875015831  0.124979168
     0.916645396  0.874979934  0.624973816
     0.000000000  0.083349373  0.458330214
     0.000000000  0.083323168  0.958337149
     0.000000000  0.333349286  0.458337779
     0.000000000  0.333309244  0.958337715
     0.000000000  0.583316563  0.458338128
     0.000000000  0.583325807  0.958308296
     0.000000000  0.833329703  0.458322884
     0.000000000  0.833340626  0.958315547
     0.166716534  0.083379102  0.458322100
     0.166653154  0.083319409  0.958322616
     0.166770360  0.333396381  0.458302140
     0.166563359  0.333274348  0.958263465
     0.166776117  0.583300773  0.458290587
     0.166589659  0.583341105  0.958383490
     0.166704090  0.833289310  0.458317783
     0.166656375  0.833351932  0.958302520
     0.333368870  0.083371861  0.458323447
     0.333321521  0.083321892  0.958312881
     0.333608013  0.333876427  0.458170758
     0.333206337  0.333204806  0.958422195
     0.333446173  0.583271607  0.457943320
     0.333039618  0.583476925  0.958988211
     0.333481426  0.833141589  0.458315200
     0.333308434  0.833391611  0.958305822
     0.500000000  0.083362880  0.458337738
     0.500000000  0.083317699  0.958330262
     0.500000000  0.333442195  0.458007196
     0.500000000  0.333026995  0.958986453
     0.500000000  0.583554181  0.959169859
     0.500000000  0.833217172  0.458302191
     0.500000000  0.833433149  0.958266759
     0.666631160  0.083371861  0.458323447
     0.666678509  0.083321892  0.958312881
     0.666392017  0.333876427  0.458170758
     0.666793693  0.333204806  0.958422195
     0.666553857  0.583271607  0.457943320
     0.666960412  0.583476925  0.958988211
     0.666518604  0.833141589  0.458315200
     0.666691596  0.833391611  0.958305822
     0.833283451  0.083379102  0.458322100
     0.833346831  0.083319409  0.958322616
     0.833229625  0.333396381  0.458302140
     0.833436626  0.333274348  0.958263465
     0.833223868  0.583300773  0.458290587
     0.833410326  0.583341105  0.958383490
     0.833295895  0.833289310  0.458317783
     0.833343610  0.833351932  0.958302520
     0.083368074  0.208358532  0.458335544
     0.083320971  0.208308654  0.958340594
     0.083506784  0.458312284  0.458328498
     0.083286389  0.458315955  0.958325267
     0.083362646  0.708309253  0.458333816
     0.083325965  0.708344029  0.958312816
     0.083365954  0.958341380  0.458328229
     0.083339548  0.958337440  0.958322669
     0.250107925  0.208541788  0.458349209
     0.249956605  0.208280870  0.958349366
     0.250637610  0.458283335  0.458202480
     0.249837473  0.458297577  0.958438441
     0.250084636  0.708238530  0.458318454
     0.249952758  0.708385209  0.958416782
     0.250055140  0.958295308  0.458353635
     0.249990851  0.958349179  0.958347597
     0.416698196  0.208448146  0.458311366
     0.416639538  0.208272676  0.958402351
     0.416465040  0.458219017  0.959184957
     0.417045007  0.707859442  0.458181564
     0.416613973  0.708480223  0.958413409
     0.416673647  0.958304474  0.458328619
     0.416650912  0.958357651  0.958325447
     0.583301774  0.208448146  0.458311366
     0.583360432  0.208272676  0.958402351
     0.583534930  0.458219017  0.959184957
     0.582954963  0.707859442  0.458181564
     0.583385997  0.708480223  0.958413409
     0.583326323  0.958304474  0.458328619
     0.583349058  0.958357651  0.958325447
     0.749892075  0.208541788  0.458349209
     0.750043395  0.208280870  0.958349366
     0.749362390  0.458283335  0.458202480
     0.750162527  0.458297577  0.958438441
     0.749915364  0.708238530  0.458318454
     0.750047242  0.708385209  0.958416782
     0.749944860  0.958295308  0.458353635
     0.750009149  0.958349179  0.958347597
     0.916631949  0.208358532  0.458335544
     0.916679052  0.208308654  0.958340594
     0.916493239  0.458312284  0.458328498
     0.916713634  0.458315955  0.958325267
     0.916637377  0.708309253  0.458333816
     0.916674058  0.708344029  0.958312816
     0.916634069  0.958341380  0.458328229
     0.916660475  0.958337440  0.958322669
     0.000000000  0.166659776  0.291668498
     0.000000000  0.166653952  0.791658348
     0.000000000  0.416658900  0.291701891
     0.000000000  0.416655549  0.791633858
     0.000000000  0.666677016  0.291658513
     0.000000000  0.666663144  0.791628460
     0.000000000  0.916678837  0.291651445
     0.000000000  0.916671245  0.791643765
     0.166679169  0.166671420  0.291693328
     0.166668992  0.166664814  0.791655692
     0.166630660  0.416656325  0.291657816
     0.166647173  0.416647789  0.791692455
     0.166620975  0.666697909  0.291687308
     0.166700730  0.666653815  0.791663408
     0.166673395  0.916678023  0.291667542
     0.166691513  0.916664841  0.791643104
     0.333314188  0.166651742  0.291677500
     0.333334714  0.166706965  0.791660313
     0.332874492  0.416447993  0.290500043
     0.333249321  0.416624379  0.792231469
     0.333249670  0.666755335  0.291477409
     0.333376148  0.666625327  0.791955758
     0.333330020  0.916666868  0.291684912
     0.333329126  0.916676549  0.791645723
     0.500000000  0.166621071  0.291685898
     0.500000000  0.166693759  0.791663827
     0.500000000  0.416313581  0.290099703
     0.500000000  0.416076055  0.794746705
     0.500000000  0.667130953  0.290482984
     0.500000000  0.666755285  0.792166886
     0.500000000  0.916674868  0.291663287
     0.500000000  0.916696468  0.791622570
     0.666685842  0.166651742  0.291677500
     0.666665316  0.166706965  0.791660313
     0.667125538  0.416447993  0.290500043
     0.666750709  0.416624379  0.792231469
     0.666750360  0.666755335  0.291477409
     0.666623882  0.666625327  0.791955758
     0.666670010  0.916666868  0.291684912
     0.666670904  0.916676549  0.791645723
     0.833320816  0.166671420  0.291693328
     0.833330993  0.166664814  0.791655692
     0.833369325  0.416656325  0.291657816
     0.833352812  0.416647789  0.791692455
     0.833379010  0.666697909  0.291687308
     0.833299255  0.666653815  0.791663408
     0.833326590  0.916678023  0.291667542
     0.833308472  0.916664841  0.791643104
     0.083350647  0.041671612  0.291659213
     0.083351392  0.041662754  0.791643544
     0.083348736  0.291658163  0.291674396
     0.083323765  0.291645739  0.791627024
     0.083326852  0.541666483  0.291661585
     0.083365469  0.541648263  0.791633271
     0.083337578  0.791683467  0.291645888
     0.083357517  0.791667204  0.791629296
     0.250000671  0.041659028  0.291640028
     0.250006762  0.041683517  0.791609526
     0.249974897  0.291640373  0.291611606
     0.249966380  0.291648574  0.791657966
     0.249891623  0.541682114  0.291459945
     0.250056141  0.541641823  0.791900146
     0.249985602  0.791687623  0.291627204
     0.250030611  0.791639274  0.791615503
     0.416647034  0.041661246  0.291658473
     0.416652712  0.041683032  0.791639610
     0.416615291  0.291572793  0.291486308
     0.416669879  0.291712213  0.791934566
     0.416333017  0.541835704  0.290082170
     0.416083483  0.541962008  0.794715429
     0.416648016  0.791700835  0.291630528
     0.416654824  0.791691063  0.791670931
     0.583352936  0.041661246  0.291658473
     0.583347258  0.041683032  0.791639610
     0.583384679  0.291572793  0.291486308
     0.583330091  0.291712213  0.791934566
     0.583666953  0.541835704  0.290082170
     0.583916487  0.541962008  0.794715429
     0.583351954  0.791700835  0.291630528
     0.583345146  0.791691063  0.791670931
     0.749999329  0.041659028  0.291640028
     0.749993238  0.041683517  0.791609526
     0.750025103  0.291640373  0.291611606
     0.750033620  0.291648574  0.791657966
     0.750108377  0.541682114  0.291459945
     0.749943859  0.541641823  0.791900146
     0.750014398  0.791687623  0.291627204
     0.749969389  0.791639274  0.791615503
[...]
 196       0.005    -0.000    -0.005       1.084
 197      -0.005    -0.003     0.009       0.146
 198       0.001     0.000    -0.002       0.611
 199       0.002     0.001    -0.003       0.395
 200      -0.002    -0.001     0.003       0.186
 201      -0.004    -0.002     0.006       0.337
 202       0.009    -0.000     0.018      -0.528
 203      -0.013    -0.009     0.020       0.212
 204       0.006     0.000     0.013      -0.474
 205      -0.011    -0.009     0.011       0.177
 206      -0.002    -0.001     0.003       0.199
 207      -0.002     0.000     0.006       0.410
 208      -0.005    -0.001     0.005       0.868
 209      -0.004    -0.003     0.016       0.072
 210       0.099     0.089     0.183      -0.054
 211       0.078     0.056     0.192      -0.114
 212      -0.011    -0.003     0.013       0.638
 213      -0.023    -0.015     0.046       0.166
 214      -0.004    -0.001     0.005       0.562
 215      -0.004    -0.004     0.008       0.086
 216       0.006    -0.001     0.013      -0.534
 217      -0.012    -0.009     0.013       0.260
 218       0.019     0.019     0.095      -0.007
 219       0.099     0.090     0.185      -0.047
 220       0.076     0.054     0.189      -0.113
 221      -0.005    -0.001     0.006       0.726
 222      -0.006    -0.004     0.011       0.209
 223      -0.005    -0.001     0.005       0.868
 224      -0.004    -0.003     0.016       0.072
 225       0.099     0.089     0.183      -0.054
 226       0.078     0.056     0.192      -0.114
 227      -0.011    -0.003     0.013       0.638
 228      -0.023    -0.015     0.046       0.166
 229      -0.004    -0.001     0.005       0.562
 230      -0.004    -0.004     0.008       0.086
 231      -0.002    -0.001     0.003       0.186
 232      -0.004    -0.002     0.006       0.337
 233       0.009    -0.000     0.018      -0.528
 234      -0.013    -0.009     0.020       0.212
 235       0.006     0.000     0.013      -0.474
 236      -0.011    -0.009     0.011       0.177
 237      -0.002    -0.001     0.003       0.199
 238      -0.002     0.000     0.006       0.410
 239      -0.002    -0.000     0.002       0.776
 240      -0.003     0.000     0.003       1.071
 241      -0.004    -0.001     0.004       0.698
 242      -0.005    -0.003     0.008       0.136
 243       0.007     0.000    -0.008       0.872
 244      -0.004     0.000     0.021       0.186
 245      -0.002    -0.001     0.002       0.252
 246      -0.003    -0.001     0.005       0.512
 247      -0.002    -0.001     0.004       0.259
 248      -0.003    -0.002     0.007       0.168
 249       0.009     0.002     0.017      -0.370
 250      -0.010    -0.008     0.018       0.109
 251      -0.013    -0.002     0.013       0.838
 252      -0.022    -0.013     0.049       0.189
 253      -0.004    -0.001     0.004       0.785
 254      -0.002    -0.002     0.015       0.031
 255      -0.005    -0.001     0.006       0.644
 256      -0.005    -0.003     0.009       0.164
 257      -0.012    -0.003     0.013       0.676
 258      -0.024    -0.016     0.046       0.176
 259       0.020     0.018     0.096      -0.017
 260       0.009     0.001     0.018      -0.434
 261      -0.012    -0.009     0.019       0.176
 262      -0.005    -0.001     0.006       0.644
 263      -0.005    -0.003     0.009       0.164
 264      -0.012    -0.003     0.013       0.676
 265      -0.024    -0.016     0.046       0.176
 266       0.020     0.018     0.096      -0.017
 267       0.009     0.001     0.018      -0.434
 268      -0.012    -0.009     0.019       0.176
 269      -0.002    -0.001     0.004       0.259
 270      -0.003    -0.002     0.007       0.168
 271       0.009     0.002     0.017      -0.370
 272      -0.010    -0.008     0.018       0.109
 273      -0.013    -0.002     0.013       0.838
 274      -0.022    -0.013     0.049       0.189
 275      -0.004    -0.001     0.004       0.785
 276      -0.002    -0.002     0.015       0.031
 277      -0.002    -0.000     0.002       0.776
 278      -0.003     0.000     0.003       1.071
 279      -0.004    -0.001     0.004       0.698
 280      -0.005    -0.003     0.008       0.136
 281       0.007     0.000    -0.008       0.872
 282      -0.004     0.000     0.021       0.186
 283      -0.002    -0.001     0.002       0.252
 284      -0.003    -0.001     0.005       0.512
 285       0.002    -0.000    -0.002       0.999
 286       0.003     0.001    -0.003       0.719
 287      -0.002    -0.001     0.003       0.429
 288      -0.004    -0.002     0.005       0.493
 289      -0.007     0.001     0.007       1.054
 290      -0.011    -0.007     0.012       0.326
 291      -0.002    -0.000     0.003       0.387
 292      -0.003    -0.001     0.006       0.419
 293      -0.002    -0.001     0.003       0.193
 294      -0.003    -0.001     0.004       0.640
 295       0.003    -0.001    -0.004       0.864
 296      -0.003    -0.003     0.012       0.046
 297       0.006     0.001    -0.010       0.511
 298      -0.017     0.017    -0.023      -1.470
 299      -0.002     0.001     0.004       0.841
 300      -0.005    -0.005     0.010       0.063
 301      -0.004    -0.001     0.005       0.525
 302      -0.004    -0.004     0.008       0.046
 303       0.005    -0.000    -0.008       0.709
 304      -0.017     0.014    -0.020      -1.543
 305      -0.021     0.012    -0.028      -1.163
 306       0.328     0.327     0.569      -0.003
 307       0.005    -0.000    -0.008       0.701
 308      -0.017     0.015    -0.020      -1.572
 309      -0.005    -0.001     0.006       0.659
 310      -0.006    -0.004     0.010       0.183
 311      -0.007     0.004     0.021       0.519
 312       0.020     0.010     0.065      -0.156
 313       0.093     0.092     0.151      -0.009
 314       0.053     0.041     0.080      -0.142
 315       0.006    -0.001     0.060      -0.128
 316      -0.004    -0.001     0.005       0.525
 317      -0.004    -0.004     0.008       0.046
 318       0.005    -0.000    -0.008       0.709
 319      -0.017     0.014    -0.020      -1.543
 320      -0.021     0.012    -0.028      -1.163
 321       0.328     0.327     0.569      -0.003
 322       0.005    -0.000    -0.008       0.701
 323      -0.017     0.015    -0.020      -1.572
 324      -0.002    -0.001     0.003       0.193
 325      -0.003    -0.001     0.004       0.640
 326       0.003    -0.001    -0.004       0.864
 327      -0.003    -0.003     0.012       0.046
 328       0.006     0.001    -0.010       0.511
 329      -0.017     0.017    -0.023      -1.469
 330      -0.002     0.001     0.004       0.841
 331      -0.005    -0.005     0.010       0.063
 332      -0.002    -0.000     0.002       0.815
 333      -0.003     0.001     0.003       1.010
 334       0.005    -0.000    -0.007       0.752
 335      -0.005    -0.003     0.015       0.127
 336      -0.005     0.002     0.007       1.066
 337      -0.008    -0.005     0.013       0.166
 338      -0.001    -0.000     0.002       0.781
 339       0.003     0.000    -0.003       0.856
 340      -0.003    -0.001     0.004       0.529
 341      -0.005    -0.004     0.007       0.106
 342       0.053     0.041     0.079      -0.145
 343       0.007    -0.001     0.060      -0.127
 344      -0.007     0.004     0.020       0.535
 345       0.021     0.011     0.065      -0.157
 346      -0.003    -0.001     0.004       0.536
 347      -0.005    -0.004     0.006       0.136
 348      -0.004     0.001     0.007       0.848
 349      -0.007    -0.005     0.012       0.162
 350      -0.022     0.012    -0.027      -1.273
 351       0.331     0.329     0.571      -0.003
 352      -0.022     0.011    -0.027      -1.252
 353       0.327     0.325     0.567      -0.005
 354       0.005    -0.001    -0.006       0.904
 355      -0.005    -0.003     0.015       0.134
 356      -0.004     0.001     0.007       0.848
 357      -0.007    -0.005     0.012       0.162
 358      -0.022     0.012    -0.027      -1.273
 359       0.331     0.329     0.571      -0.003
 360      -0.022     0.011    -0.027      -1.252
 361       0.327     0.325     0.567      -0.005
 362       0.005    -0.001    -0.006       0.904
 363      -0.005    -0.003     0.015       0.134
 364      -0.003    -0.001     0.004       0.529
 365      -0.005    -0.004     0.007       0.106
 366       0.053     0.041     0.079      -0.145
 367       0.007    -0.001     0.060      -0.127
 368      -0.007     0.004     0.020       0.535
 369       0.021     0.011     0.065      -0.157
 370      -0.003    -0.001     0.004       0.536
 371      -0.005    -0.004     0.006       0.136
 372      -0.002    -0.000     0.002       0.815
 373      -0.003     0.001     0.003       1.010
 374       0.005    -0.000    -0.007       0.752
 375      -0.005    -0.003     0.015       0.127
 376      -0.005     0.002     0.007       1.066
 377      -0.008    -0.005     0.013       0.166
 378      -0.001    -0.000     0.002       0.781
 379       0.003     0.000    -0.003       0.856
 380       0.002     0.001    -0.003       0.395
 381       0.001     0.000    -0.002       0.611
 382      -0.005    -0.003     0.009       0.146
 383       0.005    -0.000    -0.005       1.084
 384      -0.008    -0.005     0.012       0.241
 385      -0.007     0.000     0.007       0.975
 386       0.003     0.001    -0.003       0.582
 387       0.001     0.000    -0.002       0.700
 388      -0.002     0.000     0.006       0.410
 389      -0.002    -0.001     0.003       0.199
 390      -0.011    -0.009     0.011       0.177
 391       0.006     0.000     0.013      -0.474
 392      -0.013    -0.009     0.020       0.212
 393       0.009    -0.000     0.018      -0.528
 394      -0.004    -0.002     0.006       0.337
 395      -0.002    -0.001     0.003       0.186
 396      -0.004    -0.004     0.008       0.086
 397      -0.004    -0.001     0.005       0.562
 398      -0.023    -0.015     0.046       0.166
 399      -0.011    -0.003     0.013       0.638
 400       0.078     0.056     0.192      -0.114
 401       0.099     0.089     0.183      -0.054
 402      -0.004    -0.003     0.016       0.072
 403      -0.005    -0.001     0.005       0.868
 404      -0.006    -0.004     0.011       0.209
 405      -0.005    -0.001     0.006       0.726
 406       0.076     0.054     0.189      -0.113
 407       0.099     0.090     0.185      -0.047
 408       0.019     0.019     0.095      -0.007
 409      -0.012    -0.009     0.013       0.260
 410       0.006    -0.001     0.013      -0.534
 411      -0.004    -0.004     0.008       0.086
 412      -0.004    -0.001     0.005       0.562
 413      -0.023    -0.015     0.046       0.166
 414      -0.011    -0.003     0.013       0.638
 415       0.078     0.056     0.192      -0.114
 416       0.099     0.089     0.183      -0.054
 417      -0.004    -0.003     0.016       0.072
 418      -0.005    -0.001     0.005       0.868
 419      -0.002     0.000     0.006       0.410
 420      -0.002    -0.001     0.003       0.199
 421      -0.011    -0.009     0.011       0.177
 422       0.006     0.000     0.013      -0.474
 423      -0.013    -0.009     0.020       0.212
 424       0.009    -0.000     0.018      -0.528
 425      -0.004    -0.002     0.006       0.337
 426      -0.002    -0.001     0.003       0.186
 427      -0.003    -0.001     0.005       0.512
 428      -0.002    -0.001     0.002       0.252
 429      -0.004     0.000     0.021       0.186
 430       0.007     0.000    -0.008       0.872
 431      -0.005    -0.003     0.008       0.136
 432      -0.004    -0.001     0.004       0.698
 433      -0.003     0.000     0.003       1.071
 434      -0.002    -0.000     0.002       0.776
 435      -0.002    -0.002     0.015       0.031
 436      -0.004    -0.001     0.004       0.785
 437      -0.022    -0.013     0.049       0.189
 438      -0.013    -0.002     0.013       0.838
 439      -0.010    -0.008     0.018       0.109
 440       0.009     0.002     0.017      -0.370
 441      -0.003    -0.002     0.007       0.168
 442      -0.002    -0.001     0.004       0.259
 443      -0.012    -0.009     0.019       0.176
 444       0.009     0.001     0.018      -0.434
 445       0.020     0.018     0.096      -0.017
 446      -0.024    -0.016     0.046       0.176
 447      -0.012    -0.003     0.013       0.676
 448      -0.005    -0.003     0.009       0.164
 449      -0.005    -0.001     0.006       0.644
 450      -0.012    -0.009     0.019       0.176
 451       0.009     0.001     0.018      -0.434
 452       0.020     0.018     0.096      -0.017
 453      -0.024    -0.016     0.046       0.176
 454      -0.012    -0.003     0.013       0.676
 455      -0.005    -0.003     0.009       0.164
 456      -0.005    -0.001     0.006       0.644
 457      -0.002    -0.002     0.015       0.031
 458      -0.004    -0.001     0.004       0.785
 459      -0.022    -0.013     0.049       0.189
 460      -0.013    -0.002     0.013       0.838
 461      -0.010    -0.008     0.018       0.109
 462       0.009     0.002     0.017      -0.370
 463      -0.003    -0.002     0.007       0.168
 464      -0.002    -0.001     0.004       0.259
 465      -0.003    -0.001     0.005       0.512
 466      -0.002    -0.001     0.002       0.252
 467      -0.004     0.000     0.021       0.186
 468       0.007     0.000    -0.008       0.872
 469      -0.005    -0.003     0.008       0.136
 470      -0.004    -0.001     0.004       0.698
 471      -0.003     0.000     0.003       1.071
 472      -0.002    -0.000     0.002       0.776
 473       0.002     0.001    -0.002       0.562
 474       0.002     0.001    -0.003       0.519
 475       0.008    -0.003    -0.008       1.325
 476      -0.007    -0.003     0.010       0.511
 477      -0.005    -0.001     0.007       0.548
 478      -0.004    -0.002     0.008       0.335
 479       0.002     0.001    -0.002       0.490
 480       0.002     0.001    -0.002       0.472
 481      -0.003    -0.002     0.004       0.157
 482      -0.003    -0.002     0.005       0.191
 483       0.009    -0.008    -0.016       1.095
 484      -0.008    -0.000     0.020       0.371
 485      -0.004     0.001     0.014       0.319
 486      -0.008    -0.004     0.012       0.329
 487      -0.002    -0.001     0.004       0.330
 488      -0.002    -0.001     0.004       0.394
 489      -0.005    -0.002     0.009       0.288
 490      -0.005    -0.003     0.011       0.188
 491       0.413     0.403     0.627      -0.015
 492      -0.021     0.006     0.058       0.464
 493       0.019    -0.015    -0.022       1.615
 494      -0.009     0.000     0.042       0.216
 495      -0.005    -0.003     0.006       0.328
 496      -0.004    -0.003     0.007       0.238
 497      -0.005     0.000     0.014       0.410
 498      -0.009    -0.004     0.013       0.368
 499      -0.087     0.043    -0.094      -1.380
 500       0.974     0.937     1.636      -0.022
 501       0.413     0.404     0.628      -0.014
 502      -0.021     0.005     0.058       0.446
 503      -0.006    -0.003     0.008       0.456
 504      -0.006    -0.003     0.008       0.374
 505      -0.005    -0.002     0.009       0.288
 506      -0.005    -0.003     0.011       0.188
 507       0.413     0.403     0.627      -0.015
 508      -0.021     0.006     0.058       0.464
 509       0.019    -0.015    -0.022       1.615
 510      -0.009     0.000     0.042       0.216
 511      -0.005    -0.003     0.006       0.328
 512      -0.004    -0.003     0.007       0.238
 513      -0.003    -0.002     0.004       0.157
 514      -0.003    -0.002     0.005       0.191
 515       0.009    -0.008    -0.016       1.095
 516      -0.008    -0.000     0.020       0.371
 517      -0.004     0.001     0.014       0.319
 518      -0.008    -0.004     0.012       0.329
 519      -0.002    -0.001     0.004       0.330
 520      -0.002    -0.001     0.004       0.394
 521      -0.002    -0.000     0.002       0.939
 522      -0.002     0.000     0.003       0.986
 523      -0.005    -0.002     0.005       0.395
 524      -0.005    -0.003     0.006       0.293
 525      -0.007    -0.001     0.012       0.497
 526      -0.005     0.000     0.015       0.355
 527      -0.002    -0.001     0.003       0.369
 528      -0.003    -0.001     0.004       0.462
 529      -0.002    -0.001     0.005       0.163
 530      -0.003    -0.002     0.005       0.166
 531      -0.009     0.007    -0.013      -1.240
 532      -0.005    -0.000     0.018       0.276
 533       0.021    -0.015    -0.023       1.537
 534      -0.014    -0.002     0.041       0.281
 535      -0.004    -0.003     0.008       0.183
 536      -0.004    -0.003     0.010       0.126
 537      -0.005    -0.002     0.007       0.385
 538      -0.005    -0.002     0.008       0.306
 539       0.020    -0.015    -0.021       1.644
 540      -0.010    -0.001     0.042       0.223
 541      -0.086     0.043    -0.094      -1.365
 542       0.980     0.942     1.636      -0.023
 543      -0.009     0.008    -0.014      -1.193
 544      -0.006    -0.001     0.019       0.302
 545      -0.005    -0.002     0.007       0.385
 546      -0.005    -0.002     0.008       0.306
 547       0.020    -0.015    -0.021       1.644
 548      -0.010    -0.001     0.042       0.223
 549      -0.086     0.043    -0.094      -1.365
 550       0.980     0.942     1.636      -0.023
 551      -0.009     0.008    -0.014      -1.193
 552      -0.006    -0.001     0.019       0.302
 553      -0.002    -0.001     0.005       0.163
 554      -0.003    -0.002     0.005       0.166
 555      -0.009     0.007    -0.013      -1.240
 556      -0.005    -0.000     0.018       0.276
 557       0.021    -0.015    -0.023       1.537
 558      -0.014    -0.002     0.041       0.281
 559      -0.004    -0.003     0.008       0.183
 560      -0.004    -0.003     0.010       0.126
 561      -0.002    -0.000     0.002       0.939
 562      -0.002     0.000     0.003       0.986
 563      -0.005    -0.002     0.005       0.395
 564      -0.005    -0.003     0.006       0.293
 565      -0.007    -0.001     0.012       0.497
 566      -0.005     0.000     0.015       0.355
 567      -0.002    -0.001     0.003       0.369
 568      -0.003    -0.001     0.004       0.462
 569      25.473    25.471    49.468      -0.000
 570      25.473    25.471    49.468      -0.000
 571      -1.027    -0.688    -1.165      -0.291
 572      -1.025    -0.688    -1.164      -0.290
 573      -1.025    -0.688    -1.164      -0.290
 574      -1.027    -0.688    -1.165      -0.291
 575      -1.025    -0.688    -1.164      -0.290
 576      -1.025    -0.688    -1.164      -0.290
 ---------------------------------------------------------------------



--------------------------------------------------------------------------------------------------------


     LOOP+:  cpu time  707.7746: real time  709.8495
    4ORBIT:  cpu time    0.0000: real time    0.0000

 total amount of memory used by VASP MPI-rank0   135649. kBytes
=======================================================================

   base      :      30000. kBytes
   nonlr-proj:       4917. kBytes
   fftplans  :       8132. kBytes
   grid      :      24015. kBytes
   one-center:        147. kBytes
   wavefun   :      68438. kBytes
 
  
  
 General timing and accounting informations for this job:
 ========================================================
  
                  Total CPU time used (sec):      728.463
                            User time (sec):      726.088
                          System time (sec):        2.375
                         Elapsed time (sec):      731.036
  
                   Maximum memory used (kb):      301904.
                   Average memory used (kb):          N/A
  
                          Minor page faults:       262713
                          Major page faults:            0
                 Voluntary context switches:         6687
