 vasp.6.2.0 18Jan21 (build Apr 30 2021 19:00:08) gamma-only                     
  
 executed on             LinuxIFC date 2022.11.10  12:00:27
 running on   48 total cores
 distrk:  each k-point on   48 cores,    1 groups
 distr:  one band on NCORE=  12 cores,    4 groups


--------------------------------------------------------------------------------------------------------


 INCAR:
   SYSTEM = Diamond
   PREC = Normal
   ISTART = 0
   ICHARG = 11
   ISPIN = 2
   MAGMOM = 568*0.0 2*1.0 6*1.0
   NPAR = 4
   NELECT = 2305
   LHYPERFINE = T
   LEFG = T
   ENCUT = 700
   NELM = 1000
   NELMIN = 4
   EDIFF = 1E-06
   LREAL = Auto
   ALGO = Normal
   EDIFFG = -1E-02
   NSW = 0
   IBRION = 2
   ISIF = 2
   ISYM = 2
   POTIM = 0.5
   ISMEAR = 0
   SIGMA = 0.05
   NEDOS = 1000
   LWAVE = F
   LCHARG = F
   LVHAR = F
   LELF = F

 POTCAR:    PAW_PBE C 08Apr2002                   
 POTCAR:    PAW_PBE N 08Apr2002                   
 POTCAR:    PAW_PBE C 08Apr2002                   
 POTCAR:    PAW_PBE C 08Apr2002                   
   VRHFIN =C: s2p2                                                                                  
   LEXCH  = PE                                                                                      
   EATOM  =   147.1560 eV,   10.8157 Ry                                                             
                                                                                                    
   TITEL  = PAW_PBE C 08Apr2002                                                                     
   LULTRA =        F    use ultrasoft PP ?                                                          
   IUNSCR =        1    unscreen: 0-lin 1-nonlin 2-no                                               
   RPACOR =    1.200    partial core radius                                                         
   POMASS =   12.011; ZVAL   =    4.000    mass and valenz                                          
   RCORE  =    1.500    outmost cutoff radius                                                       
   RWIGS  =    1.630; RWIGS  =    0.863    wigner-seitz radius (au A)                               
   ENMAX  =  400.000; ENMIN  =  300.000 eV                                                          
   ICORE  =        2    local potential                                                             
   LCOR   =        T    correct aug charges                                                         
   LPAW   =        T    paw PP                                                                      
   EAUG   =  644.873                                                                                
   DEXC   =    0.000                                                                                
   RMAX   =    1.529    core radius for proj-oper                                                   
   RAUG   =    1.300    factor for augmentation sphere                                              
   RDEP   =    1.501    radius for radial grids                                                     
   RDEPT  =    1.300    core radius for aug-charge                                                  
                                                                                                    
   Atomic configuration                                                                             
    4 entries                                                                                       
     n  l   j            E        occ.                                                              
     1  0  0.50      -273.3789   2.0000                                                             
     2  0  0.50       -13.7508   2.0000                                                             
     2  1  0.50        -5.2854   2.0000                                                             
     3  2  1.50        -5.4423   0.0000                                                             
   Description                                                                                      
     l       E           TYP  RCUT    TYP  RCUT                                                     
     0    -13.7508458     23  1.200                                                                 
     0     -8.2022199     23  1.200                                                                 
     1     -5.2854383     23  1.500                                                                 
     1     34.0145650     23  1.500                                                                 
     2     -5.4423304      7  1.500                                                                 
  local pseudopotential read in
  partial core-charges read in
  partial kinetic energy density read in
  atomic valenz-charges read in
  non local Contribution for L=           0  read in
    real space projection operators read in
  non local Contribution for L=           0  read in
    real space projection operators read in
  non local Contribution for L=           1  read in
    real space projection operators read in
  non local Contribution for L=           1  read in
    real space projection operators read in
    PAW grid and wavefunctions read in
 
   number of l-projection  operators is LMAX  =           4
   number of lm-projection operators is LMMAX =           8
 
 POTCAR:    PAW_PBE N 08Apr2002                   
   VRHFIN =N: s2p3                                                                                  
   LEXCH  = PE                                                                                      
   EATOM  =   264.5486 eV,   19.4438 Ry                                                             
                                                                                                    
   TITEL  = PAW_PBE N 08Apr2002                                                                     
   LULTRA =        F    use ultrasoft PP ?                                                          
   IUNSCR =        1    unscreen: 0-lin 1-nonlin 2-no                                               
   RPACOR =    1.200    partial core radius                                                         
   POMASS =   14.001; ZVAL   =    5.000    mass and valenz                                          
   RCORE  =    1.500    outmost cutoff radius                                                       
   RWIGS  =    1.400; RWIGS  =    0.741    wigner-seitz radius (au A)                               
   ENMAX  =  400.000; ENMIN  =  300.000 eV                                                          
   ICORE  =        2    local potential                                                             
   LCOR   =        T    correct aug charges                                                         
   LPAW   =        T    paw PP                                                                      
   EAUG   =  627.112                                                                                
   DEXC   =    0.000                                                                                
   RMAX   =    1.529    core radius for proj-oper                                                   
   RAUG   =    1.300    factor for augmentation sphere                                              
   RDEP   =    1.514    radius for radial grids                                                     
   RDEPT  =    1.338    core radius for aug-charge                                                  
                                                                                                    
   Atomic configuration                                                                             
    4 entries                                                                                       
     n  l   j            E        occ.                                                              
     1  0  0.50      -384.7179   2.0000                                                             
     2  0  0.50       -18.5828   2.0000                                                             
     2  1  0.50        -7.0898   3.0000                                                             
     3  2  1.50        -6.8029   0.0000                                                             
   Description                                                                                      
     l       E           TYP  RCUT    TYP  RCUT                                                     
     0    -18.5828119     23  1.200                                                                 
     0    -13.5018863     23  1.200                                                                 
     1     -7.0897853     23  1.500                                                                 
     1      9.5240782     23  1.500                                                                 
     2     -6.8029130      7  1.500                                                                 
  local pseudopotential read in
  partial core-charges read in
  partial kinetic energy density read in
  atomic valenz-charges read in
  non local Contribution for L=           0  read in
    real space projection operators read in
  non local Contribution for L=           0  read in
    real space projection operators read in
  non local Contribution for L=           1  read in
    real space projection operators read in
  non local Contribution for L=           1  read in
    real space projection operators read in
    PAW grid and wavefunctions read in
 
   number of l-projection  operators is LMAX  =           4
   number of lm-projection operators is LMMAX =           8
 
 POTCAR:    PAW_PBE C 08Apr2002                   
   VRHFIN =C: s2p2                                                                                  
   LEXCH  = PE                                                                                      
   EATOM  =   147.1560 eV,   10.8157 Ry                                                             
                                                                                                    
   TITEL  = PAW_PBE C 08Apr2002                                                                     
   LULTRA =        F    use ultrasoft PP ?                                                          
   IUNSCR =        1    unscreen: 0-lin 1-nonlin 2-no                                               
   RPACOR =    1.200    partial core radius                                                         
   POMASS =   12.011; ZVAL   =    4.000    mass and valenz                                          
   RCORE  =    1.500    outmost cutoff radius                                                       
   RWIGS  =    1.630; RWIGS  =    0.863    wigner-seitz radius (au A)                               
   ENMAX  =  400.000; ENMIN  =  300.000 eV                                                          
   ICORE  =        2    local potential                                                             
   LCOR   =        T    correct aug charges                                                         
   LPAW   =        T    paw PP                                                                      
   EAUG   =  644.873                                                                                
   DEXC   =    0.000                                                                                
   RMAX   =    1.529    core radius for proj-oper                                                   
   RAUG   =    1.300    factor for augmentation sphere                                              
   RDEP   =    1.501    radius for radial grids                                                     
   RDEPT  =    1.300    core radius for aug-charge                                                  
                                                                                                    
   Atomic configuration                                                                             
    4 entries                                                                                       
     n  l   j            E        occ.                                                              
     1  0  0.50      -273.3789   2.0000                                                             
     2  0  0.50       -13.7508   2.0000                                                             
     2  1  0.50        -5.2854   2.0000                                                             
     3  2  1.50        -5.4423   0.0000                                                             
   Description                                                                                      
     l       E           TYP  RCUT    TYP  RCUT                                                     
     0    -13.7508458     23  1.200                                                                 
     0     -8.2022199     23  1.200                                                                 
     1     -5.2854383     23  1.500                                                                 
     1     34.0145650     23  1.500                                                                 
     2     -5.4423304      7  1.500                                                                 
  local pseudopotential read in
  partial core-charges read in
  partial kinetic energy density read in
  atomic valenz-charges read in
  non local Contribution for L=           0  read in
    real space projection operators read in
  non local Contribution for L=           0  read in
    real space projection operators read in
  non local Contribution for L=           1  read in
    real space projection operators read in
  non local Contribution for L=           1  read in
    real space projection operators read in
    PAW grid and wavefunctions read in
 
   number of l-projection  operators is LMAX  =           4
   number of lm-projection operators is LMMAX =           8
 
 Optimization of the real space projectors (new method)

 maximal supplied QI-value         = 25.13
 optimisation between [QCUT,QGAM] = [ 13.32, 26.89] = [ 49.69,202.52] Ry 
 Optimized for a Real-space Cutoff    1.01 Angstroem

   l    n(q)    QCUT    max X(q) W(low)/X(q) W(high)/X(q)  e(spline) 
   0      8    13.321   115.676    0.29E-03    0.42E-03    0.11E-06
   0      8    13.321    87.132    0.29E-03    0.42E-03    0.11E-06
   1      8    13.321     4.429    0.39E-03    0.33E-03    0.98E-07
   1      8    13.321     2.733    0.30E-03    0.26E-03    0.97E-07
 Optimization of the real space projectors (new method)

 maximal supplied QI-value         = 25.13
 optimisation between [QCUT,QGAM] = [ 13.32, 26.89] = [ 49.69,202.52] Ry 
 Optimized for a Real-space Cutoff    1.01 Angstroem

   l    n(q)    QCUT    max X(q) W(low)/X(q) W(high)/X(q)  e(spline) 
   0      8    13.321    79.467    0.28E-03    0.38E-03    0.11E-06
   0      8    13.321    66.151    0.27E-03    0.38E-03    0.11E-06
   1      8    13.321    23.070    0.40E-03    0.78E-03    0.29E-06
   1      8    13.321    16.668    0.40E-03    0.79E-03    0.30E-06
 Optimization of the real space projectors (new method)

 maximal supplied QI-value         = 25.13
 optimisation between [QCUT,QGAM] = [ 13.32, 26.89] = [ 49.69,202.52] Ry 
 Optimized for a Real-space Cutoff    1.01 Angstroem

   l    n(q)    QCUT    max X(q) W(low)/X(q) W(high)/X(q)  e(spline) 
   0      8    13.321   115.676    0.29E-03    0.42E-03    0.11E-06
   0      8    13.321    87.132    0.29E-03    0.42E-03    0.11E-06
   1      8    13.321     4.429    0.39E-03    0.33E-03    0.98E-07
   1      8    13.321     2.733    0.30E-03    0.26E-03    0.97E-07
  PAW_PBE C 08Apr2002                   :
 energy of atom  1       EATOM= -147.1560
 kinetic energy error for atom=    0.0032 (will be added to EATOM!!)
  PAW_PBE N 08Apr2002                   :
 energy of atom  2       EATOM= -264.5486
 kinetic energy error for atom=    0.0061 (will be added to EATOM!!)
  PAW_PBE C 08Apr2002                   :
 energy of atom  3       EATOM= -147.1560
 kinetic energy error for atom=    0.0032 (will be added to EATOM!!)
 
 
 POSCAR: Autosave
  positions in direct lattice
  velocities in cartesian coordinates
 exchange correlation table for  LEXCH =        8
   RHO(1)=    0.500       N(1)  =     2000
   RHO(2)=  100.500       N(2)  =     4000
 


--------------------------------------------------------------------------------------------------------


 ion  position               nearest neighbor table
   1  0.000  1.000  0.000- 285 1.54 473 1.54 433 1.54 379 1.54
   2  0.000  0.000  0.500- 472 1.54 432 1.54 286 1.54 378 1.54
   3  0.000  0.250  0.000- 381 1.54 287 1.54 467 1.54 427 1.54
   4  0.000  0.250  0.500- 288 1.54 380 1.54 466 1.54 426 1.54
   5  0.000  0.500  1.000- 383 1.54 289 1.54 469 1.55 429 1.55
   6  0.000  0.500  0.500- 290 1.54 382 1.54 468 1.55 428 1.55
   7  0.000  0.750  1.000- 291 1.54 385 1.54 471 1.54 431 1.54
   8  0.000  0.750  0.500- 292 1.54 470 1.54 430 1.54 384 1.54
   9  0.167  1.000  0.000- 293 1.54 433 1.54 387 1.54 441 1.54
  10  0.167  0.000  0.500- 432 1.54 440 1.54 386 1.54 294 1.54
  11  0.167  0.250  0.000- 389 1.54 435 1.54 427 1.54 295 1.54
  12  0.167  0.250  0.500- 296 1.54 434 1.54 388 1.54 426 1.54
  13  0.167  0.500  1.000- 391 1.54 429 1.54 297 1.54 437 1.55
  14  0.167  0.500  0.500- 298 1.54 436 1.54 390 1.55 428 1.55
  15  0.167  0.750  1.000- 299 1.54 431 1.54 393 1.54 439 1.55
  16  0.167  0.750  0.500- 438 1.54 300 1.54 392 1.54 430 1.54
  17  0.333  1.000  0.000- 395 1.54 301 1.54 449 1.54 441 1.54
  18  0.333  1.000  0.500- 394 1.54 440 1.54 448 1.54 302 1.54
  19  0.333  0.250  0.000- 303 1.54 397 1.54 435 1.54 443 1.54
  20  0.333  0.250  0.500- 304 1.54 442 1.54 434 1.54 396 1.55
  21  0.334  0.500  0.999- 437 1.54 399 1.55 445 1.55 305 1.55
  22  0.333  0.500  0.500- 306 1.54 444 1.54 436 1.55 398 1.55
  23  0.333  0.750  1.000- 307 1.54 401 1.54 439 1.54 447 1.54
  24  0.333  0.751  0.500- 400 1.54 446 1.54 438 1.54 308 1.54
  25  0.500  1.000  0.000- 403 1.54 309 1.54 457 1.54 449 1.54
  26  0.500  1.000  0.500- 402 1.54 310 1.54 456 1.54 448 1.54
  27  0.500  0.249  0.001- 405 1.54 311 1.54 451 1.55 443 1.55
  28  0.500  0.250  0.500- 450 1.54 442 1.54 312 1.54 404 1.55
  29  0.500  0.500  1.000- 453 1.54 445 1.54 407 1.55 313 1.55
  30  0.500  0.750  1.000- 314 1.54 409 1.54 455 1.54 447 1.54
  31  0.500  0.751  0.500- 408 1.54 315 1.55 454 1.55 446 1.55
  32  0.667  1.000  0.000- 411 1.54 316 1.54 465 1.54 457 1.54
  33  0.667  1.000  0.500- 410 1.54 464 1.54 456 1.54 317 1.54
  34  0.667  0.250  0.000- 318 1.54 413 1.54 459 1.54 451 1.54
  35  0.667  0.250  0.500- 319 1.54 450 1.54 458 1.54 412 1.55
  36  0.666  0.500  0.999- 461 1.54 415 1.55 453 1.55 320 1.55
  37  0.667  0.500  0.500- 321 1.54 452 1.54 460 1.55 414 1.55
  38  0.667  0.750  1.000- 322 1.54 417 1.54 463 1.54 455 1.54
  39  0.667  0.751  0.500- 416 1.54 454 1.54 462 1.54 323 1.54
  40  0.833  1.000  0.000- 324 1.54 473 1.54 419 1.54 465 1.54
  41  0.833  0.000  0.500- 472 1.54 464 1.54 418 1.54 325 1.54
  42  0.833  0.250  0.000- 421 1.54 459 1.54 467 1.54 326 1.54
  43  0.833  0.250  0.500- 327 1.54 458 1.54 420 1.54 466 1.54
  44  0.833  0.500  1.000- 423 1.54 469 1.54 328 1.54 461 1.55
  45  0.833  0.500  0.500- 329 1.54 460 1.54 422 1.55 468 1.55
  46  0.833  0.750  1.000- 330 1.54 471 1.54 425 1.54 463 1.55
  47  0.833  0.750  0.500- 462 1.54 331 1.54 424 1.54 470 1.54
  48  0.083  0.125  0.000- 332 1.54 379 1.54 387 1.54 427 1.54
  49  0.083  0.125  0.500- 333 1.54 386 1.54 426 1.54 378 1.54
  50  0.083  0.375  0.000- 429 1.54 334 1.54 389 1.54 381 1.54
  51  0.083  0.375  0.500- 335 1.54 428 1.54 388 1.54 380 1.55
  52  0.083  0.625  1.000- 431 1.54 336 1.54 383 1.55 391 1.55
  53  0.083  0.625  0.500- 337 1.54 430 1.54 390 1.54 382 1.54
  54  0.083  0.875  0.000- 338 1.54 385 1.54 433 1.54 393 1.54
  55  0.083  0.875  0.500- 392 1.54 384 1.54 339 1.54 432 1.54
  56  0.250  0.125  0.000- 435 1.54 340 1.54 387 1.54 395 1.54
  57  0.250  0.125  0.500- 394 1.54 386 1.54 341 1.54 434 1.55
  58  0.250  0.375  0.000- 397 1.54 389 1.54 437 1.55 342 1.55
  59  0.250  0.375  0.500- 343 1.54 396 1.54 436 1.55 388 1.55
  60  0.250  0.625  1.000- 391 1.54 439 1.54 344 1.55 399 1.55
  61  0.250  0.625  0.500- 398 1.54 345 1.54 390 1.54 438 1.54
  62  0.250  0.875  0.000- 346 1.54 441 1.54 393 1.54 401 1.54
  63  0.250  0.875  0.500- 440 1.54 400 1.54 392 1.54 347 1.54
  64  0.417  0.125  0.000- 443 1.54 348 1.54 395 1.54 403 1.55
  65  0.417  0.125  0.500- 394 1.54 442 1.54 402 1.54 349 1.54
  66  0.417  0.375  0.000- 405 1.54 397 1.54 350 1.55 445 1.55
  67  0.418  0.375  0.501- 404 1.54 574 1.55 444 1.55 396 1.56
  68  0.417  0.625  1.000- 399 1.54 407 1.54 351 1.55 447 1.55
  69  0.416  0.626  0.499- 446 1.54 398 1.54 352 1.55 406 1.55
  70  0.417  0.875  1.000- 449 1.54 353 1.54 401 1.54 409 1.54
  71  0.417  0.875  0.500- 448 1.54 408 1.54 354 1.54 400 1.54
  72  0.583  0.125  0.000- 451 1.54 355 1.54 411 1.54 403 1.55
  73  0.583  0.125  0.500- 410 1.54 450 1.54 402 1.54 356 1.54
  74  0.583  0.375  0.000- 405 1.54 413 1.54 357 1.55 453 1.55
  75  0.582  0.375  0.501- 404 1.54 575 1.55 452 1.55 412 1.56
  76  0.583  0.625  1.000- 415 1.54 407 1.54 358 1.55 455 1.55
  77  0.584  0.626  0.499- 454 1.54 414 1.54 359 1.55 406 1.55
  78  0.583  0.875  1.000- 457 1.54 360 1.54 417 1.54 409 1.54
  79  0.583  0.875  0.500- 456 1.54 408 1.54 361 1.54 416 1.54
  80  0.750  0.125  0.000- 459 1.54 362 1.54 419 1.54 411 1.54
  81  0.750  0.125  0.500- 410 1.54 418 1.54 363 1.54 458 1.55
  82  0.750  0.375  0.000- 413 1.54 421 1.54 461 1.55 364 1.55
  83  0.750  0.375  0.500- 365 1.54 412 1.54 460 1.55 420 1.55
  84  0.750  0.625  1.000- 423 1.54 463 1.54 366 1.55 415 1.55
  85  0.750  0.625  0.500- 414 1.54 367 1.54 422 1.54 462 1.54
  86  0.750  0.875  0.000- 368 1.54 465 1.54 425 1.54 417 1.54
  87  0.750  0.875  0.500- 464 1.54 416 1.54 424 1.54 369 1.54
  88  0.917  0.125  0.000- 370 1.54 379 1.54 419 1.54 467 1.54
  89  0.917  0.125  0.500- 371 1.54 418 1.54 466 1.54 378 1.54
  90  0.917  0.375  0.000- 469 1.54 372 1.54 421 1.54 381 1.54
  91  0.917  0.375  0.500- 373 1.54 468 1.54 420 1.54 380 1.55
  92  0.917  0.625  1.000- 471 1.54 374 1.54 383 1.55 423 1.55
  93  0.917  0.625  0.500- 375 1.54 470 1.54 422 1.54 382 1.54
  94  0.917  0.875  0.000- 376 1.54 385 1.54 473 1.54 425 1.54
  95  0.917  0.875  0.500- 424 1.54 384 1.54 377 1.54 472 1.54
  96  0.000  0.083  0.333- 378 1.54 561 1.54 521 1.54 474 1.54
  97  0.000  0.083  0.833- 562 1.54 522 1.54 379 1.54 475 1.54
  98  0.000  0.333  0.333- 380 1.54 476 1.54 563 1.55 523 1.55
  99  0.000  0.333  0.833- 381 1.54 477 1.54 564 1.54 524 1.54
 100  0.000  0.583  0.333- 478 1.54 382 1.54 565 1.54 525 1.54
 101  0.000  0.583  0.833- 383 1.54 479 1.54 566 1.55 526 1.55
 102  0.000  0.833  0.333- 567 1.54 527 1.54 384 1.54 480 1.54
 103  0.000  0.833  0.833- 385 1.54 568 1.54 528 1.54 481 1.54
 104  0.167  0.083  0.333- 386 1.54 529 1.54 482 1.54 521 1.54
 105  0.167  0.083  0.833- 522 1.54 483 1.54 387 1.54 530 1.54
 106  0.167  0.333  0.334- 531 1.54 388 1.54 484 1.54 523 1.55
 107  0.167  0.333  0.833- 532 1.54 524 1.54 389 1.54 485 1.55
 108  0.167  0.583  0.333- 486 1.54 390 1.54 525 1.54 533 1.54
 109  0.167  0.583  0.833- 391 1.54 487 1.54 526 1.54 534 1.55
 110  0.167  0.833  0.333- 488 1.54 392 1.54 527 1.54 535 1.54
 111  0.167  0.833  0.833- 393 1.54 536 1.54 528 1.54 489 1.54
 112  0.333  0.083  0.333- 394 1.54 490 1.54 537 1.54 529 1.54
 113  0.333  0.083  0.834- 491 1.54 530 1.54 395 1.54 538 1.54
 114  0.334  0.333  0.334- 539 1.54 492 1.55 396 1.55 531 1.55
 115  0.333  0.333  0.834- 532 1.54 397 1.54 540 1.54 493 1.55
 116  0.333  0.584  0.333- 398 1.54 541 1.54 533 1.54 494 1.54
 117  0.334  0.583  0.832- 534 1.54 495 1.55 399 1.55 542 1.56
 118  0.333  0.834  0.333- 496 1.54 400 1.54 535 1.54 543 1.54
 119  0.333  0.833  0.833- 497 1.54 401 1.54 544 1.54 536 1.54
 120  0.500  0.083  0.333- 498 1.54 402 1.54 545 1.54 537 1.54
 121  0.500  0.083  0.834- 499 1.54 403 1.54 546 1.54 538 1.54
 122  0.500  0.333  0.334- 547 1.54 539 1.54 404 1.55 500 1.55
 123  0.500  0.331  0.835- 405 1.53 576 1.53 548 1.55 540 1.55
 124  0.500  0.584  0.332- 406 1.53 501 1.54 549 1.54 541 1.54
 125  0.500  0.584  0.833- 550 1.54 542 1.54 407 1.55 502 1.55
 126  0.500  0.834  0.333- 503 1.54 408 1.54 551 1.55 543 1.55
 127  0.500  0.833  0.833- 504 1.54 409 1.54 552 1.54 544 1.54
 128  0.667  0.083  0.333- 410 1.54 505 1.54 545 1.54 553 1.54
 129  0.667  0.083  0.834- 506 1.54 554 1.54 411 1.54 546 1.54
 130  0.666  0.333  0.334- 547 1.54 507 1.55 412 1.55 555 1.55
 131  0.667  0.333  0.834- 556 1.54 413 1.54 548 1.54 508 1.55
 132  0.667  0.584  0.333- 414 1.54 549 1.54 557 1.54 509 1.54
 133  0.666  0.583  0.832- 558 1.54 510 1.55 415 1.55 550 1.56
 134  0.667  0.834  0.333- 511 1.54 416 1.54 559 1.54 551 1.54
 135  0.667  0.833  0.833- 512 1.54 417 1.54 552 1.54 560 1.54
 136  0.833  0.083  0.333- 418 1.54 553 1.54 513 1.54 561 1.54
 137  0.833  0.083  0.833- 562 1.54 514 1.54 419 1.54 554 1.54
 138  0.833  0.333  0.334- 555 1.54 420 1.54 515 1.54 563 1.55
 139  0.833  0.333  0.833- 556 1.54 564 1.54 421 1.54 516 1.55
 140  0.833  0.583  0.333- 517 1.54 422 1.54 565 1.54 557 1.54
 141  0.833  0.583  0.833- 423 1.54 518 1.54 566 1.54 558 1.55
 142  0.833  0.833  0.333- 519 1.54 424 1.54 567 1.54 559 1.54
 143  0.833  0.833  0.833- 425 1.54 560 1.54 568 1.54 520 1.54
 144  0.083  0.208  0.333- 426 1.54 482 1.54 523 1.54 474 1.54
 145  0.083  0.208  0.833- 483 1.54 427 1.54 524 1.54 475 1.54
 146  0.083  0.458  0.333- 428 1.54 525 1.54 484 1.54 476 1.55
 147  0.083  0.458  0.833- 429 1.54 526 1.54 477 1.55 485 1.55
 148  0.083  0.708  0.333- 527 1.54 430 1.54 486 1.54 478 1.54
 149  0.083  0.708  0.833- 431 1.54 528 1.54 479 1.54 487 1.54
 150  0.083  0.958  0.333- 488 1.54 432 1.54 480 1.54 521 1.54
 151  0.083  0.958  0.833- 489 1.54 433 1.54 481 1.54 522 1.54
 152  0.250  0.208  0.334- 434 1.54 490 1.54 531 1.54 482 1.55
 153  0.250  0.208  0.834- 483 1.54 435 1.54 532 1.54 491 1.54
 154  0.250  0.458  0.333- 492 1.54 436 1.54 533 1.55 484 1.55
 155  0.250  0.458  0.833- 437 1.54 485 1.54 493 1.55 534 1.55
 156  0.250  0.708  0.333- 535 1.54 438 1.54 494 1.54 486 1.54
 157  0.250  0.708  0.833- 439 1.54 487 1.54 495 1.54 536 1.55
 158  0.250  0.958  0.333- 529 1.54 440 1.54 488 1.54 496 1.54
 159  0.250  0.958  0.833- 530 1.54 489 1.54 441 1.54 497 1.54
 160  0.417  0.208  0.334- 442 1.54 490 1.54 498 1.54 539 1.55
 161  0.417  0.207  0.834- 540 1.54 443 1.54 491 1.54 499 1.55
 162  0.417  0.459  0.334- 500 1.54 541 1.55 492 1.55 444 1.56
 163  0.417  0.458  0.832- 493 1.54 576 1.55 542 1.55 445 1.56
 164  0.417  0.709  0.333- 543 1.54 446 1.54 494 1.54 501 1.55
 165  0.417  0.709  0.833- 502 1.54 495 1.54 447 1.54 544 1.54
 166  0.417  0.958  0.333- 537 1.54 448 1.54 496 1.54 503 1.54
 167  0.417  0.958  0.833- 538 1.54 449 1.54 497 1.54 504 1.54
 168  0.583  0.208  0.334- 450 1.54 505 1.54 498 1.54 547 1.55
 169  0.583  0.207  0.834- 548 1.54 451 1.54 506 1.54 499 1.55
 170  0.583  0.459  0.334- 500 1.54 549 1.55 507 1.55 452 1.56
 171  0.583  0.458  0.832- 508 1.54 576 1.55 550 1.55 453 1.56
 172  0.583  0.709  0.333- 551 1.54 454 1.54 509 1.54 501 1.55
 173  0.583  0.709  0.833- 502 1.54 510 1.54 455 1.54 552 1.54
 174  0.583  0.958  0.333- 545 1.54 456 1.54 511 1.54 503 1.54
 175  0.583  0.958  0.833- 546 1.54 457 1.54 512 1.54 504 1.54
 176  0.750  0.208  0.334- 458 1.54 505 1.54 555 1.54 513 1.55
 177  0.750  0.208  0.834- 514 1.54 459 1.54 556 1.54 506 1.54
 178  0.750  0.458  0.333- 507 1.54 460 1.54 557 1.55 515 1.55
 179  0.750  0.458  0.833- 461 1.54 516 1.54 508 1.55 558 1.55
 180  0.750  0.708  0.333- 559 1.54 462 1.54 509 1.54 517 1.54
 181  0.750  0.708  0.833- 463 1.54 518 1.54 510 1.54 560 1.55
 182  0.750  0.958  0.333- 553 1.54 464 1.54 519 1.54 511 1.54
 183  0.750  0.958  0.833- 554 1.54 520 1.54 465 1.54 512 1.54
 184  0.917  0.208  0.333- 466 1.54 513 1.54 563 1.54 474 1.54
 185  0.917  0.208  0.833- 514 1.54 467 1.54 564 1.54 475 1.54
 186  0.917  0.458  0.333- 468 1.54 565 1.54 515 1.54 476 1.55
 187  0.917  0.458  0.833- 469 1.54 566 1.54 477 1.55 516 1.55
 188  0.917  0.708  0.333- 567 1.54 470 1.54 517 1.54 478 1.54
 189  0.917  0.708  0.833- 471 1.54 568 1.54 479 1.54 518 1.54
 190  0.917  0.958  0.333- 519 1.54 472 1.54 480 1.54 561 1.54
 191  0.917  0.958  0.833- 520 1.54 473 1.54 481 1.54 562 1.54
 192  0.000  0.167  0.167- 474 1.54 287 1.54 370 1.54 332 1.54
 193  0.000  0.167  0.667- 371 1.54 333 1.54 475 1.54 288 1.54
 194  0.000  0.417  0.167- 289 1.54 476 1.54 372 1.54 334 1.54
 195  0.000  0.417  0.667- 477 1.54 290 1.54 373 1.55 335 1.55
 196  0.000  0.667  0.167- 291 1.54 478 1.54 374 1.55 336 1.55
 197  0.000  0.667  0.667- 479 1.54 292 1.54 375 1.55 337 1.55
 198  0.000  0.917  0.167- 480 1.54 376 1.54 338 1.54 285 1.54
 199  0.000  0.917  0.667- 377 1.54 339 1.54 481 1.54 286 1.54
 200  0.167  0.167  0.167- 482 1.54 295 1.54 340 1.54 332 1.54
 201  0.167  0.167  0.667- 333 1.54 483 1.54 341 1.54 296 1.55
 202  0.167  0.417  0.167- 342 1.54 297 1.54 484 1.54 334 1.55
 203  0.167  0.417  0.667- 485 1.54 298 1.54 335 1.55 343 1.55
 204  0.167  0.667  0.166- 299 1.54 336 1.54 486 1.54 344 1.55
 205  0.167  0.667  0.667- 487 1.54 337 1.54 345 1.54 300 1.55
 206  0.167  0.917  0.167- 488 1.54 338 1.54 293 1.54 346 1.54
 207  0.167  0.917  0.667- 294 1.54 347 1.54 339 1.54 489 1.54
 208  0.333  0.167  0.167- 490 1.54 303 1.54 348 1.54 340 1.54
 209  0.333  0.166  0.667- 304 1.54 341 1.54 349 1.54 491 1.54
 210  0.334  0.417  0.167- 350 1.54 305 1.54 342 1.55 492 1.55
 211  0.335  0.417  0.667- 493 1.54 574 1.55 306 1.55 343 1.56
 212  0.333  0.667  0.166- 344 1.54 307 1.54 494 1.54 351 1.54
 213  0.333  0.668  0.666- 352 1.53 308 1.54 495 1.54 345 1.54
 214  0.333  0.917  0.167- 301 1.54 496 1.54 346 1.54 353 1.54
 215  0.333  0.917  0.667- 302 1.54 354 1.54 347 1.54 497 1.54
 216  0.500  0.166  0.167- 311 1.54 498 1.54 355 1.54 348 1.54
 217  0.500  0.166  0.667- 312 1.54 356 1.54 349 1.54 499 1.55
 218  0.500  0.417  0.167- 357 1.54 350 1.54 313 1.54 500 1.55
 219  0.500  0.667  0.166- 501 1.54 314 1.54 358 1.54 351 1.54
 220  0.500  0.668  0.666- 315 1.54 502 1.54 359 1.55 352 1.55
 221  0.500  0.917  0.167- 309 1.54 503 1.54 360 1.54 353 1.54
 222  0.500  0.917  0.667- 310 1.54 361 1.54 354 1.54 504 1.54
 223  0.667  0.167  0.167- 505 1.54 318 1.54 355 1.54 362 1.54
 224  0.667  0.166  0.667- 319 1.54 363 1.54 356 1.54 506 1.54
 225  0.666  0.417  0.167- 357 1.54 320 1.54 364 1.55 507 1.55
 226  0.665  0.417  0.667- 508 1.54 575 1.55 321 1.55 365 1.56
 227  0.667  0.667  0.166- 366 1.54 322 1.54 509 1.54 358 1.54
 228  0.667  0.668  0.666- 359 1.53 323 1.54 510 1.54 367 1.54
 229  0.667  0.917  0.167- 316 1.54 511 1.54 368 1.54 360 1.54
 230  0.667  0.917  0.667- 317 1.54 361 1.54 369 1.54 512 1.54
 231  0.833  0.167  0.167- 513 1.54 326 1.54 362 1.54 370 1.54
 232  0.833  0.167  0.667- 371 1.54 514 1.54 363 1.54 327 1.55
 233  0.833  0.417  0.167- 364 1.54 328 1.54 515 1.54 372 1.55
 234  0.833  0.417  0.667- 516 1.54 329 1.54 373 1.55 365 1.55
 235  0.833  0.667  0.166- 330 1.54 374 1.54 517 1.54 366 1.55
 236  0.833  0.667  0.667- 518 1.54 375 1.54 367 1.54 331 1.55
 237  0.833  0.917  0.167- 519 1.54 376 1.54 324 1.54 368 1.54
 238  0.833  0.917  0.667- 325 1.54 369 1.54 377 1.54 520 1.54
 239  0.083  0.042  0.167- 521 1.54 293 1.54 285 1.54 332 1.54
 240  0.083  0.042  0.667- 294 1.54 286 1.54 522 1.54 333 1.54
 241  0.083  0.292  0.167- 334 1.54 523 1.54 295 1.54 287 1.55
 242  0.083  0.292  0.667- 524 1.54 296 1.54 335 1.54 288 1.55
 243  0.083  0.542  0.167- 336 1.54 525 1.54 289 1.54 297 1.55
 244  0.084  0.542  0.667- 526 1.54 337 1.54 290 1.55 298 1.55
 245  0.083  0.792  0.167- 527 1.54 338 1.54 291 1.54 299 1.54
 246  0.083  0.792  0.667- 300 1.54 292 1.54 528 1.54 339 1.54
 247  0.250  0.042  0.167- 529 1.54 340 1.54 301 1.54 293 1.54
 248  0.250  0.041  0.667- 341 1.54 294 1.54 302 1.54 530 1.54
 249  0.250  0.292  0.167- 303 1.54 342 1.54 531 1.55 295 1.55
 250  0.250  0.291  0.667- 532 1.54 304 1.54 296 1.54 343 1.55
 251  0.250  0.542  0.166- 297 1.54 344 1.54 533 1.55 305 1.55
 252  0.251  0.542  0.667- 534 1.54 345 1.55 298 1.55 306 1.56
 253  0.250  0.792  0.167- 346 1.54 535 1.54 299 1.54 307 1.54
 254  0.250  0.792  0.667- 308 1.54 347 1.54 536 1.54 300 1.54
 255  0.417  0.042  0.167- 348 1.54 537 1.54 301 1.54 309 1.54
 256  0.417  0.041  0.667- 349 1.54 302 1.54 310 1.54 538 1.54
 257  0.417  0.292  0.167- 303 1.54 311 1.54 539 1.55 350 1.55
 258  0.416  0.289  0.667- 304 1.53 574 1.53 540 1.55 312 1.55
 259  0.417  0.542  0.166- 305 1.54 313 1.54 351 1.55 541 1.55
 260  0.417  0.792  0.166- 353 1.54 543 1.54 307 1.54 314 1.54
 261  0.417  0.792  0.667- 354 1.54 315 1.54 544 1.54 308 1.54
 262  0.583  0.042  0.167- 355 1.54 545 1.54 316 1.54 309 1.54
 263  0.583  0.041  0.667- 356 1.54 317 1.54 310 1.54 546 1.54
 264  0.583  0.292  0.167- 318 1.54 311 1.54 547 1.55 357 1.55
 265  0.584  0.289  0.667- 319 1.53 575 1.53 548 1.55 312 1.55
 266  0.583  0.542  0.166- 320 1.54 313 1.54 358 1.55 549 1.55
 267  0.583  0.792  0.166- 360 1.54 551 1.54 322 1.54 314 1.54
 268  0.583  0.792  0.667- 361 1.54 315 1.54 552 1.54 323 1.54
 269  0.750  0.042  0.167- 553 1.54 362 1.54 316 1.54 324 1.54
 270  0.750  0.041  0.667- 363 1.54 325 1.54 317 1.54 554 1.54
 271  0.750  0.292  0.167- 318 1.54 364 1.54 555 1.55 326 1.55
 272  0.750  0.291  0.667- 556 1.54 319 1.54 327 1.54 365 1.55
 273  0.750  0.542  0.166- 328 1.54 366 1.54 557 1.55 320 1.55
 274  0.749  0.542  0.667- 558 1.54 367 1.55 329 1.55 321 1.56
 275  0.750  0.792  0.167- 368 1.54 559 1.54 330 1.54 322 1.54
 276  0.750  0.792  0.667- 323 1.54 369 1.54 560 1.54 331 1.54
 277  0.917  0.042  0.167- 561 1.54 324 1.54 285 1.54 370 1.54
 278  0.917  0.042  0.667- 325 1.54 286 1.54 562 1.54 371 1.54
 279  0.917  0.292  0.167- 372 1.54 563 1.54 326 1.54 287 1.55
 280  0.917  0.292  0.667- 564 1.54 327 1.54 373 1.54 288 1.55
 281  0.917  0.542  0.167- 374 1.54 565 1.54 289 1.54 328 1.55
 282  0.916  0.542  0.667- 566 1.54 375 1.54 290 1.55 329 1.55
 283  0.917  0.792  0.167- 567 1.54 376 1.54 291 1.54 330 1.54
 284  0.917  0.792  0.667- 331 1.54 292 1.54 568 1.54 377 1.54
 285  0.000  0.000  0.125-   1 1.54 277 1.54 239 1.54 198 1.54
 286  0.000  0.000  0.625- 278 1.54 240 1.54   2 1.54 199 1.54
 287  0.000  0.250  0.125- 192 1.54   3 1.54 279 1.55 241 1.55
 288  0.000  0.250  0.625-   4 1.54 193 1.54 280 1.55 242 1.55
 289  0.000  0.500  0.125- 194 1.54   5 1.54 281 1.54 243 1.54
 290  0.000  0.500  0.625-   6 1.54 195 1.54 282 1.55 244 1.55
 291  0.000  0.750  0.125-   7 1.54 196 1.54 283 1.54 245 1.54
 292  0.000  0.750  0.625- 284 1.54 246 1.54   8 1.54 197 1.54
 293  0.167  1.000  0.125-   9 1.54 239 1.54 206 1.54 247 1.54
 294  0.167  1.000  0.625- 207 1.54 248 1.54 240 1.54  10 1.54
 295  0.167  0.250  0.125- 200 1.54 241 1.54  11 1.54 249 1.55
 296  0.167  0.250  0.625-  12 1.54 242 1.54 250 1.54 201 1.55
 297  0.167  0.500  0.125- 251 1.54 202 1.54  13 1.54 243 1.55
 298  0.167  0.500  0.625-  14 1.54 203 1.54 244 1.55 252 1.55
 299  0.167  0.750  0.125-  15 1.54 204 1.54 253 1.54 245 1.54
 300  0.167  0.750  0.625- 246 1.54  16 1.54 254 1.54 205 1.55
 301  0.333  1.000  0.125- 214 1.54  17 1.54 247 1.54 255 1.54
 302  0.333  1.000  0.625- 215 1.54 256 1.54 248 1.54  18 1.54
 303  0.333  0.250  0.125- 249 1.54 208 1.54  19 1.54 257 1.54
 304  0.333  0.249  0.625- 258 1.53 209 1.54  20 1.54 250 1.54
 305  0.334  0.500  0.125- 259 1.54 210 1.54 251 1.55  21 1.55
 306  0.335  0.500  0.624-  22 1.54 572 1.55 211 1.55 252 1.56
 307  0.333  0.750  0.125-  23 1.54 212 1.54 260 1.54 253 1.54
 308  0.333  0.751  0.625- 213 1.54 254 1.54 261 1.54  24 1.54
 309  0.500  1.000  0.125- 221 1.54  25 1.54 262 1.54 255 1.54
 310  0.500  1.000  0.625- 222 1.54 263 1.54 256 1.54  26 1.54
 311  0.500  0.250  0.126-  27 1.54 216 1.54 264 1.54 257 1.54
 312  0.500  0.249  0.625- 217 1.54  28 1.54 265 1.55 258 1.55
 313  0.500  0.500  0.125- 266 1.54 259 1.54 218 1.54  29 1.55
 314  0.500  0.750  0.125- 219 1.54  30 1.54 267 1.54 260 1.54
 315  0.500  0.751  0.625- 220 1.54 268 1.54 261 1.54  31 1.55
 316  0.667  1.000  0.125- 229 1.54  32 1.54 269 1.54 262 1.54
 317  0.667  1.000  0.625- 230 1.54 263 1.54 270 1.54  33 1.54
 318  0.667  0.250  0.125- 271 1.54 223 1.54  34 1.54 264 1.54
 319  0.667  0.249  0.625- 265 1.53 224 1.54  35 1.54 272 1.54
 320  0.666  0.500  0.125- 266 1.54 225 1.54 273 1.55  36 1.55
 321  0.665  0.500  0.624-  37 1.54 573 1.55 226 1.55 274 1.56
 322  0.667  0.750  0.125-  38 1.54 227 1.54 267 1.54 275 1.54
 323  0.667  0.751  0.625- 228 1.54 276 1.54 268 1.54  39 1.54
 324  0.833  1.000  0.125-  40 1.54 277 1.54 237 1.54 269 1.54
 325  0.833  1.000  0.625- 238 1.54 270 1.54 278 1.54  41 1.54
 326  0.833  0.250  0.125- 231 1.54 279 1.54  42 1.54 271 1.55
 327  0.833  0.250  0.625-  43 1.54 280 1.54 272 1.54 232 1.55
 328  0.833  0.500  0.125- 273 1.54 233 1.54  44 1.54 281 1.55
 329  0.833  0.500  0.625-  45 1.54 234 1.54 282 1.55 274 1.55
 330  0.833  0.750  0.125-  46 1.54 235 1.54 275 1.54 283 1.54
 331  0.833  0.750  0.625- 284 1.54  47 1.54 276 1.54 236 1.55
 332  0.083  0.125  0.125-  48 1.54 239 1.54 192 1.54 200 1.54
 333  0.083  0.125  0.625- 201 1.54 193 1.54  49 1.54 240 1.54
 334  0.083  0.375  0.125- 241 1.54  50 1.54 194 1.54 202 1.55
 335  0.084  0.375  0.625-  51 1.54 242 1.54 195 1.55 203 1.55
 336  0.083  0.625  0.125- 243 1.54  52 1.54 204 1.54 196 1.55
 337  0.083  0.625  0.625-  53 1.54 205 1.54 244 1.54 197 1.55
 338  0.083  0.875  0.125-  54 1.54 206 1.54 198 1.54 245 1.54
 339  0.083  0.875  0.625- 207 1.54 199 1.54  55 1.54 246 1.54
 340  0.250  0.125  0.125- 247 1.54  56 1.54 200 1.54 208 1.54
 341  0.250  0.125  0.625- 209 1.54 248 1.54  57 1.54 201 1.54
 342  0.250  0.375  0.125- 202 1.54 249 1.54  58 1.55 210 1.55
 343  0.251  0.375  0.625-  59 1.54 250 1.55 203 1.55 211 1.56
 344  0.250  0.625  0.125- 212 1.54 251 1.54  60 1.55 204 1.55
 345  0.250  0.625  0.625-  61 1.54 213 1.54 205 1.54 252 1.55
 346  0.250  0.875  0.125-  62 1.54 253 1.54 214 1.54 206 1.54
 347  0.250  0.875  0.625- 254 1.54 207 1.54 215 1.54  63 1.54
 348  0.417  0.125  0.125- 255 1.54  64 1.54 208 1.54 216 1.54
 349  0.417  0.124  0.625- 256 1.54 217 1.54  65 1.54 209 1.54
 350  0.417  0.375  0.125- 210 1.54 218 1.54 257 1.55  66 1.55
 351  0.417  0.625  0.125- 212 1.54 219 1.54  68 1.55 259 1.55
 352  0.416  0.627  0.624- 213 1.53 572 1.53  69 1.55 220 1.55
 353  0.417  0.875  0.125- 260 1.54  70 1.54 214 1.54 221 1.54
 354  0.417  0.875  0.625- 261 1.54 215 1.54 222 1.54  71 1.54
 355  0.583  0.125  0.125- 262 1.54  72 1.54 223 1.54 216 1.54
 356  0.583  0.124  0.625- 263 1.54 217 1.54  73 1.54 224 1.54
 357  0.583  0.375  0.125- 225 1.54 218 1.54 264 1.55  74 1.55
 358  0.583  0.625  0.125- 227 1.54 219 1.54  76 1.55 266 1.55
 359  0.584  0.627  0.624- 228 1.53 573 1.53  77 1.55 220 1.55
 360  0.583  0.875  0.125- 267 1.54  78 1.54 229 1.54 221 1.54
 361  0.583  0.875  0.625- 268 1.54 230 1.54 222 1.54  79 1.54
 362  0.750  0.125  0.125- 269 1.54  80 1.54 231 1.54 223 1.54
 363  0.750  0.125  0.625- 224 1.54 270 1.54  81 1.54 232 1.54
 364  0.750  0.375  0.125- 233 1.54 271 1.54  82 1.55 225 1.55
 365  0.749  0.375  0.625-  83 1.54 272 1.55 234 1.55 226 1.56
 366  0.750  0.625  0.125- 227 1.54 273 1.54  84 1.55 235 1.55
 367  0.750  0.625  0.625-  85 1.54 228 1.54 236 1.54 274 1.55
 368  0.750  0.875  0.125-  86 1.54 275 1.54 229 1.54 237 1.54
 369  0.750  0.875  0.625- 276 1.54 238 1.54 230 1.54  87 1.54
 370  0.917  0.125  0.125-  88 1.54 277 1.54 192 1.54 231 1.54
 371  0.917  0.125  0.625- 232 1.54 193 1.54  89 1.54 278 1.54
 372  0.917  0.375  0.125- 279 1.54  90 1.54 194 1.54 233 1.55
 373  0.916  0.375  0.625-  91 1.54 280 1.54 195 1.55 234 1.55
 374  0.917  0.625  0.125- 281 1.54  92 1.54 235 1.54 196 1.55
 375  0.917  0.625  0.625-  93 1.54 236 1.54 282 1.54 197 1.55
 376  0.917  0.875  0.125-  94 1.54 237 1.54 198 1.54 283 1.54
 377  0.917  0.875  0.625- 238 1.54 199 1.54  95 1.54 284 1.54
 378  0.000  0.083  0.458-  96 1.54  89 1.54  49 1.54   2 1.54
 379  0.000  0.083  0.958-  88 1.54  48 1.54  97 1.54   1 1.54
 380  0.000  0.333  0.458-  98 1.54   4 1.54  91 1.55  51 1.55
 381  0.000  0.333  0.958-   3 1.54  99 1.54  90 1.54  50 1.54
 382  0.000  0.583  0.458- 100 1.54   6 1.54  93 1.54  53 1.54
 383  0.000  0.583  0.958- 101 1.54   5 1.54  92 1.55  52 1.55
 384  0.000  0.833  0.458-  95 1.54  55 1.54 102 1.54   8 1.54
 385  0.000  0.833  0.958- 103 1.54  94 1.54  54 1.54   7 1.54
 386  0.167  0.083  0.458- 104 1.54  57 1.54  49 1.54  10 1.54
 387  0.167  0.083  0.958-   9 1.54 105 1.54  48 1.54  56 1.54
 388  0.167  0.333  0.459- 106 1.54  12 1.54  51 1.54  59 1.55
 389  0.167  0.333  0.958-  11 1.54 107 1.54  50 1.54  58 1.54
 390  0.167  0.583  0.458-  61 1.54  53 1.54 108 1.54  14 1.55
 391  0.167  0.583  0.958-  60 1.54 109 1.54  13 1.54  52 1.55
 392  0.167  0.833  0.458-  55 1.54  16 1.54 110 1.54  63 1.54
 393  0.167  0.833  0.958- 111 1.54  62 1.54  15 1.54  54 1.54
 394  0.333  0.083  0.458-  18 1.54 112 1.54  65 1.54  57 1.54
 395  0.333  0.083  0.959-  17 1.54 113 1.54  56 1.54  64 1.54
 396  0.334  0.333  0.459-  59 1.54  20 1.55 114 1.55  67 1.56
 397  0.333  0.333  0.959- 115 1.54  66 1.54  58 1.54  19 1.54
 398  0.333  0.584  0.458-  61 1.54 116 1.54  69 1.54  22 1.55
 399  0.334  0.583  0.958-  68 1.54  21 1.55 117 1.55  60 1.55
 400  0.333  0.834  0.458-  24 1.54  63 1.54 118 1.54  71 1.54
 401  0.333  0.833  0.958- 119 1.54  23 1.54  70 1.54  62 1.54
 402  0.500  0.083  0.458-  26 1.54 120 1.54  73 1.54  65 1.54
 403  0.500  0.083  0.959-  25 1.54 121 1.54  72 1.55  64 1.55
 404  0.500  0.333  0.459-  75 1.54  67 1.54 122 1.55  28 1.55
 405  0.500  0.333  0.959- 123 1.53  27 1.54  74 1.54  66 1.54
 406  0.500  0.585  0.456- 571 1.53 124 1.53  77 1.55  69 1.55
 407  0.500  0.583  0.958-  76 1.54  68 1.54 125 1.55  29 1.55
 408  0.500  0.834  0.458-  31 1.54 126 1.54  79 1.54  71 1.54
 409  0.500  0.833  0.958-  30 1.54 127 1.54  78 1.54  70 1.54
 410  0.667  0.083  0.458-  33 1.54 128 1.54  73 1.54  81 1.54
 411  0.667  0.083  0.959-  32 1.54 129 1.54  80 1.54  72 1.54
 412  0.666  0.333  0.459-  83 1.54  35 1.55 130 1.55  75 1.56
 413  0.667  0.333  0.959- 131 1.54  74 1.54  82 1.54  34 1.54
 414  0.667  0.584  0.458-  85 1.54 132 1.54  77 1.54  37 1.55
 415  0.666  0.583  0.958-  76 1.54  36 1.55 133 1.55  84 1.55
 416  0.667  0.834  0.458-  39 1.54  87 1.54 134 1.54  79 1.54
 417  0.667  0.833  0.958- 135 1.54  38 1.54  78 1.54  86 1.54
 418  0.833  0.083  0.458- 136 1.54  81 1.54  89 1.54  41 1.54
 419  0.833  0.083  0.958-  40 1.54 137 1.54  88 1.54  80 1.54
 420  0.833  0.333  0.459- 138 1.54  43 1.54  91 1.54  83 1.55
 421  0.833  0.333  0.958-  42 1.54 139 1.54  90 1.54  82 1.54
 422  0.833  0.583  0.458-  85 1.54  93 1.54 140 1.54  45 1.55
 423  0.833  0.583  0.958-  84 1.54 141 1.54  44 1.54  92 1.55
 424  0.833  0.833  0.458-  95 1.54  47 1.54 142 1.54  87 1.54
 425  0.833  0.833  0.958- 143 1.54  86 1.54  46 1.54  94 1.54
 426  0.083  0.208  0.458- 144 1.54  49 1.54   4 1.54  12 1.54
 427  0.083  0.208  0.958-  48 1.54 145 1.54  11 1.54   3 1.54
 428  0.083  0.458  0.458- 146 1.54  51 1.54   6 1.55  14 1.55
 429  0.083  0.458  0.958- 147 1.54  50 1.54  13 1.54   5 1.55
 430  0.083  0.708  0.458-  16 1.54  53 1.54 148 1.54   8 1.54
 431  0.083  0.708  0.958- 149 1.54  15 1.54  52 1.54   7 1.54
 432  0.083  0.958  0.458-  10 1.54 150 1.54   2 1.54  55 1.54
 433  0.083  0.958  0.958-   9 1.54 151 1.54   1 1.54  54 1.54
 434  0.250  0.208  0.458- 152 1.54  12 1.54  20 1.54  57 1.55
 435  0.250  0.208  0.959-  56 1.54 153 1.54  19 1.54  11 1.54
 436  0.250  0.458  0.458- 154 1.54  14 1.54  22 1.55  59 1.55
 437  0.250  0.458  0.958-  21 1.54 155 1.54  58 1.55  13 1.55
 438  0.250  0.709  0.458-  16 1.54 156 1.54  61 1.54  24 1.54
 439  0.250  0.708  0.958- 157 1.54  23 1.54  60 1.54  15 1.55
 440  0.250  0.958  0.458-  63 1.54  10 1.54 158 1.54  18 1.54
 441  0.250  0.958  0.958-  62 1.54 159 1.54   9 1.54  17 1.54
 442  0.417  0.208  0.458-  28 1.54  20 1.54 160 1.54  65 1.54
 443  0.417  0.208  0.959-  64 1.54 161 1.54  19 1.54  27 1.55
 444  0.417  0.459  0.460-  22 1.54 571 1.55  67 1.55 162 1.56
 445  0.417  0.458  0.958-  29 1.54  66 1.55  21 1.55 163 1.56
 446  0.417  0.709  0.458-  69 1.54 164 1.54  24 1.54  31 1.55
 447  0.417  0.708  0.958- 165 1.54  23 1.54  30 1.54  68 1.55
 448  0.417  0.958  0.458-  71 1.54 166 1.54  18 1.54  26 1.54
 449  0.417  0.958  0.958-  70 1.54 167 1.54  17 1.54  25 1.54
 450  0.583  0.208  0.458-  28 1.54  35 1.54 168 1.54  73 1.54
 451  0.583  0.208  0.959-  72 1.54 169 1.54  34 1.54  27 1.55
 452  0.583  0.459  0.460-  37 1.54 571 1.55  75 1.55 170 1.56
 453  0.583  0.458  0.958-  29 1.54  74 1.55  36 1.55 171 1.56
 454  0.583  0.709  0.458-  77 1.54 172 1.54  39 1.54  31 1.55
 455  0.583  0.708  0.958- 173 1.54  38 1.54  30 1.54  76 1.55
 456  0.583  0.958  0.458-  79 1.54 174 1.54  33 1.54  26 1.54
 457  0.583  0.958  0.958-  78 1.54 175 1.54  32 1.54  25 1.54
 458  0.750  0.208  0.458- 176 1.54  43 1.54  35 1.54  81 1.55
 459  0.750  0.208  0.959-  80 1.54 177 1.54  34 1.54  42 1.54
 460  0.750  0.458  0.458- 178 1.54  45 1.54  37 1.55  83 1.55
 461  0.750  0.458  0.958-  36 1.54 179 1.54  82 1.55  44 1.55
 462  0.750  0.709  0.458-  47 1.54 180 1.54  85 1.54  39 1.54
 463  0.750  0.708  0.958- 181 1.54  38 1.54  84 1.54  46 1.55
 464  0.750  0.958  0.458-  87 1.54  41 1.54 182 1.54  33 1.54
 465  0.750  0.958  0.958-  86 1.54 183 1.54  40 1.54  32 1.54
 466  0.917  0.208  0.458- 184 1.54  89 1.54   4 1.54  43 1.54
 467  0.917  0.208  0.958-  88 1.54 185 1.54  42 1.54   3 1.54
 468  0.917  0.458  0.458- 186 1.54  91 1.54   6 1.55  45 1.55
 469  0.917  0.458  0.958- 187 1.54  90 1.54  44 1.54   5 1.55
 470  0.917  0.708  0.458-  47 1.54  93 1.54 188 1.54   8 1.54
 471  0.917  0.708  0.958- 189 1.54  46 1.54  92 1.54   7 1.54
 472  0.917  0.958  0.458-  41 1.54 190 1.54   2 1.54  95 1.54
 473  0.917  0.958  0.958-  40 1.54 191 1.54   1 1.54  94 1.54
 474  0.000  0.167  0.292- 192 1.54  96 1.54 184 1.54 144 1.54
 475  0.000  0.167  0.792- 193 1.54 185 1.54 145 1.54  97 1.54
 476  0.000  0.417  0.292-  98 1.54 194 1.54 186 1.55 146 1.55
 477  0.000  0.417  0.792- 195 1.54  99 1.54 187 1.55 147 1.55
 478  0.000  0.667  0.292- 100 1.54 196 1.54 188 1.54 148 1.54
 479  0.000  0.667  0.792- 197 1.54 101 1.54 189 1.54 149 1.54
 480  0.000  0.917  0.292- 198 1.54 190 1.54 150 1.54 102 1.54
 481  0.000  0.917  0.792- 191 1.54 151 1.54 199 1.54 103 1.54
 482  0.167  0.167  0.292- 200 1.54 144 1.54 104 1.54 152 1.55
 483  0.167  0.167  0.792- 153 1.54 201 1.54 105 1.54 145 1.54
 484  0.167  0.417  0.292- 106 1.54 146 1.54 202 1.54 154 1.55
 485  0.167  0.417  0.792- 203 1.54 155 1.54 107 1.55 147 1.55
 486  0.167  0.667  0.291- 108 1.54 156 1.54 148 1.54 204 1.54
 487  0.167  0.667  0.792- 205 1.54 157 1.54 109 1.54 149 1.54
 488  0.167  0.917  0.292- 206 1.54 150 1.54 110 1.54 158 1.54
 489  0.167  0.917  0.792- 151 1.54 159 1.54 111 1.54 207 1.54
 490  0.333  0.167  0.292- 208 1.54 112 1.54 152 1.54 160 1.54
 491  0.333  0.166  0.792- 113 1.54 161 1.54 153 1.54 209 1.54
 492  0.334  0.417  0.292- 154 1.54 114 1.55 162 1.55 210 1.55
 493  0.333  0.416  0.792- 211 1.54 163 1.54 155 1.55 115 1.55
 494  0.333  0.667  0.291- 212 1.54 156 1.54 116 1.54 164 1.54
 495  0.333  0.667  0.791- 213 1.54 165 1.54 157 1.54 117 1.55
 496  0.333  0.917  0.292- 118 1.54 214 1.54 166 1.54 158 1.54
 497  0.333  0.917  0.792- 119 1.54 159 1.54 167 1.54 215 1.54
 498  0.500  0.167  0.292- 216 1.54 120 1.54 168 1.54 160 1.54
 499  0.500  0.166  0.792- 121 1.54 217 1.55 169 1.55 161 1.55
 500  0.500  0.417  0.292- 170 1.54 162 1.54 122 1.55 218 1.55
 501  0.500  0.667  0.291- 124 1.54 219 1.54 172 1.55 164 1.55
 502  0.500  0.667  0.791- 173 1.54 165 1.54 220 1.54 125 1.55
 503  0.500  0.917  0.292- 126 1.54 221 1.54 174 1.54 166 1.54
 504  0.500  0.917  0.792- 127 1.54 222 1.54 175 1.54 167 1.54
 505  0.667  0.167  0.292- 223 1.54 128 1.54 176 1.54 168 1.54
 506  0.667  0.166  0.792- 129 1.54 169 1.54 177 1.54 224 1.54
 507  0.666  0.417  0.292- 178 1.54 130 1.55 170 1.55 225 1.55
 508  0.667  0.416  0.792- 226 1.54 171 1.54 179 1.55 131 1.55
 509  0.667  0.667  0.291- 227 1.54 180 1.54 132 1.54 172 1.54
 510  0.667  0.667  0.791- 228 1.54 173 1.54 181 1.54 133 1.55
 511  0.667  0.917  0.292- 134 1.54 229 1.54 182 1.54 174 1.54
 512  0.667  0.917  0.792- 135 1.54 183 1.54 175 1.54 230 1.54
 513  0.833  0.167  0.292- 231 1.54 184 1.54 136 1.54 176 1.55
 514  0.833  0.167  0.792- 177 1.54 232 1.54 137 1.54 185 1.54
 515  0.833  0.417  0.292- 138 1.54 186 1.54 233 1.54 178 1.55
 516  0.833  0.417  0.792- 234 1.54 179 1.54 139 1.55 187 1.55
 517  0.833  0.667  0.291- 140 1.54 180 1.54 188 1.54 235 1.54
 518  0.833  0.667  0.792- 236 1.54 181 1.54 141 1.54 189 1.54
 519  0.833  0.917  0.292- 237 1.54 190 1.54 142 1.54 182 1.54
 520  0.833  0.917  0.792- 191 1.54 183 1.54 143 1.54 238 1.54
 521  0.083  0.042  0.292- 239 1.54  96 1.54 150 1.54 104 1.54
 522  0.083  0.042  0.792- 105 1.54  97 1.54 240 1.54 151 1.54
 523  0.083  0.292  0.292- 241 1.54 144 1.54  98 1.55 106 1.55
 524  0.083  0.292  0.792- 242 1.54 145 1.54 107 1.54  99 1.54
 525  0.083  0.542  0.292- 146 1.54 243 1.54 108 1.54 100 1.54
 526  0.083  0.542  0.792- 244 1.54 147 1.54 109 1.54 101 1.55
 527  0.083  0.792  0.292- 245 1.54 102 1.54 110 1.54 148 1.54
 528  0.083  0.792  0.792- 246 1.54 111 1.54 103 1.54 149 1.54
 529  0.250  0.042  0.292- 247 1.54 158 1.54 104 1.54 112 1.54
 530  0.250  0.042  0.792- 159 1.54 113 1.54 105 1.54 248 1.54
 531  0.250  0.292  0.292- 106 1.54 152 1.54 249 1.55 114 1.55
 532  0.250  0.291  0.792- 115 1.54 250 1.54 107 1.54 153 1.54
 533  0.250  0.542  0.291- 116 1.54 108 1.54 154 1.55 251 1.55
 534  0.250  0.542  0.791- 252 1.54 117 1.54 155 1.55 109 1.55
 535  0.250  0.792  0.291- 156 1.54 253 1.54 110 1.54 118 1.54
 536  0.250  0.792  0.792- 119 1.54 111 1.54 254 1.54 157 1.55
 537  0.417  0.042  0.292- 166 1.54 255 1.54 112 1.54 120 1.54
 538  0.417  0.041  0.792- 167 1.54 121 1.54 256 1.54 113 1.54
 539  0.417  0.292  0.292- 114 1.54 122 1.54 257 1.55 160 1.55
 540  0.416  0.290  0.793- 161 1.54 115 1.54 258 1.55 123 1.55
 541  0.417  0.542  0.292- 124 1.54 116 1.54 259 1.55 162 1.55
 542  0.418  0.542  0.790- 125 1.54 572 1.55 163 1.55 117 1.56
 543  0.417  0.792  0.291- 164 1.54 260 1.54 118 1.54 126 1.55
 544  0.417  0.792  0.792- 119 1.54 165 1.54 127 1.54 261 1.54
 545  0.583  0.042  0.292- 174 1.54 262 1.54 128 1.54 120 1.54
 546  0.583  0.041  0.792- 175 1.54 121 1.54 263 1.54 129 1.54
 547  0.583  0.292  0.292- 130 1.54 122 1.54 264 1.55 168 1.55
 548  0.584  0.290  0.793- 169 1.54 131 1.54 265 1.55 123 1.55
 549  0.583  0.542  0.292- 124 1.54 132 1.54 266 1.55 170 1.55
 550  0.582  0.542  0.790- 125 1.54 573 1.55 171 1.55 133 1.56
 551  0.583  0.792  0.291- 172 1.54 267 1.54 134 1.54 126 1.55
 552  0.583  0.792  0.792- 135 1.54 173 1.54 127 1.54 268 1.54
 553  0.750  0.042  0.292- 269 1.54 182 1.54 136 1.54 128 1.54
 554  0.750  0.042  0.792- 183 1.54 129 1.54 137 1.54 270 1.54
 555  0.750  0.292  0.292- 138 1.54 176 1.54 271 1.55 130 1.55
 556  0.750  0.291  0.792- 131 1.54 272 1.54 139 1.54 177 1.54
 557  0.750  0.542  0.291- 132 1.54 140 1.54 178 1.55 273 1.55
 558  0.750  0.542  0.791- 274 1.54 133 1.54 179 1.55 141 1.55
 559  0.750  0.792  0.291- 180 1.54 275 1.54 142 1.54 134 1.54
 560  0.750  0.792  0.792- 135 1.54 143 1.54 276 1.54 181 1.55
 561  0.917  0.042  0.292- 277 1.54  96 1.54 190 1.54 136 1.54
 562  0.917  0.042  0.792- 137 1.54  97 1.54 278 1.54 191 1.54
 563  0.917  0.292  0.292- 279 1.54 184 1.54  98 1.55 138 1.55
 564  0.917  0.292  0.792- 280 1.54 185 1.54 139 1.54  99 1.54
 565  0.917  0.542  0.292- 186 1.54 281 1.54 140 1.54 100 1.54
 566  0.917  0.542  0.792- 282 1.54 187 1.54 141 1.54 101 1.55
 567  0.917  0.792  0.292- 283 1.54 102 1.54 142 1.54 188 1.54
 568  0.917  0.792  0.792- 284 1.54 143 1.54 103 1.54 189 1.54
 569  0.500  0.404  0.673- 576 1.48 575 1.48 574 1.48
 570  0.500  0.513  0.618- 571 1.48 573 1.48 572 1.48
 571  0.500  0.503  0.499- 570 1.48 406 1.53 452 1.55 444 1.55
 572  0.417  0.544  0.665- 570 1.48 352 1.53 542 1.55 306 1.55
 573  0.583  0.544  0.665- 570 1.48 359 1.53 550 1.55 321 1.55
 574  0.417  0.372  0.627- 569 1.48 258 1.53  67 1.55 211 1.55
 575  0.583  0.372  0.627- 569 1.48 265 1.53  75 1.55 226 1.55
 576  0.500  0.414  0.792- 569 1.48 123 1.53 171 1.55 163 1.55
 
  LATTYP: Found a simple orthorhombic cell.
 ALAT       =    12.3557996750
 B/A-ratio  =     1.2247365795
 C/A-ratio  =     1.4142023056
  
  Lattice vectors:
  
 A1 = (   0.0000000000,   0.0000000000,  12.3557996750)
 A2 = (  15.1325998306,   0.0000000000,   0.0000000000)
 A3 = (   0.0000000000,  17.4736003876,   0.0000000000)


Analysis of symmetry for initial positions (statically):
=====================================================================
 Subroutine PRICEL returns:
 Original cell was already a primitive cell.
 

 Routine SETGRP: Setting up the symmetry group for a 
 simple orthorhombic supercell.


 Subroutine GETGRP returns: Found  4 space group operations
 (whereof  2 operations were pure point group operations)
 out of a pool of  8 trial point group operations.


The static configuration has the point symmetry C_1h.
 The point group associated with its full space group is C_2h.


Analysis of symmetry for dynamics (positions and initial velocities):
=====================================================================
 Subroutine PRICEL returns:
 Original cell was already a primitive cell.
 

 Routine SETGRP: Setting up the symmetry group for a 
 simple orthorhombic supercell.


 Subroutine GETGRP returns: Found  4 space group operations
 (whereof  2 operations were pure point group operations)
 out of a pool of  8 trial point group operations.


The dynamic configuration has the point symmetry C_1h.
 The point group associated with its full space group is C_2h.


Analysis of structural, dynamic, and magnetic symmetry:
=====================================================================
 Subroutine PRICEL returns:
 Original cell was already a primitive cell.
 

 Routine SETGRP: Setting up the symmetry group for a 
 simple orthorhombic supercell.


 Subroutine GETGRP returns: Found  4 space group operations
 (whereof  2 operations were pure point group operations)
 out of a pool of  8 trial point group operations.


The overall configuration has the point symmetry C_1h.
 The point group associated with its full space group is C_2h.


 Subroutine INISYM returns: Found  4 space group operations
 (whereof  2 operations are pure point group operations),
 and found     1 'primitive' translations


----------------------------------------------------------------------------------------

                                     Primitive cell                                     

  volume of cell :    3267.1329

  direct lattice vectors                    reciprocal lattice vectors
    15.132599831  0.000000000  0.000000000     0.066082498  0.000000000  0.000000000
     0.000000000 17.473600388  0.000000000     0.000000000  0.057229190  0.000000000
     0.000000000  0.000000000 12.355799675     0.000000000  0.000000000  0.080933653

  length of vectors
    15.132599831 17.473600388 12.355799675     0.066082498  0.057229190  0.080933653

  position of ions in fractional coordinates (direct lattice)
     0.000000000  0.999985346  0.000050619
     0.000000000  0.000033199  0.499992822
     0.000000000  0.250019833  0.000116129
     0.000000000  0.250044099  0.500080370
     0.000000000  0.499974779  0.999933009
     0.000000000  0.500024153  0.500039772
     0.000000000  0.749962817  0.999949981
     0.000000000  0.750002953  0.499949077
     0.166600686  0.999952950  0.000060890
     0.166564532  0.000022912  0.499991171
     0.166689667  0.249953985  0.000180520
     0.166711338  0.249993439  0.500119477
     0.166769168  0.499954750  0.999884701
     0.166837598  0.500080715  0.500014175
     0.166657653  0.749967365  0.999926263
     0.166592629  0.750111467  0.499909245
     0.333263743  0.999884246  0.000108245
     0.333223627  0.999986581  0.500001653
     0.333312311  0.249753541  0.000298479
     0.333409287  0.249750629  0.500304400
     0.333571590  0.499832255  0.999433835
     0.333482266  0.500323822  0.499942780
     0.333314283  0.750044239  0.999850944
     0.333154443  0.750517467  0.499725911
     0.500000000  0.999869557  0.000118079
     0.500000000  0.999969548  0.500007703
     0.500000000  0.249399302  0.000742449
     0.500000000  0.249530557  0.500239488
     0.500000000  0.499884410  0.999609967
     0.500000000  0.750111721  0.999789482
     0.500000000  0.750599316  0.499666731
     0.666736287  0.999884246  0.000108245
     0.666776403  0.999986581  0.500001653
     0.666687719  0.249753541  0.000298479
     0.666590743  0.249750629  0.500304400
     0.666428440  0.499832255  0.999433835
     0.666517764  0.500323822  0.499942780
     0.666685747  0.750044239  0.999850944
     0.666845587  0.750517467  0.499725911
     0.833399299  0.999952950  0.000060890
     0.833435453  0.000022912  0.499991171
     0.833310318  0.249953985  0.000180520
     0.833288647  0.249993439  0.500119477
     0.833230817  0.499954750  0.999884701
     0.833162387  0.500080715  0.500014175
     0.833342332  0.749967365  0.999926263
     0.833407356  0.750111467  0.499909245
     0.083314579  0.124990504  0.000095846
     0.083318448  0.125027647  0.500034685
     0.083373031  0.374994245  0.000077718
     0.083440754  0.375043434  0.500120396
     0.083378138  0.624957037  0.999854643
     0.083345772  0.625030015  0.499936941
     0.083312755  0.874975403  0.000024892
     0.083280310  0.875034455  0.499979131
     0.249951575  0.124879339  0.000170652
     0.249956586  0.124910303  0.500080851
     0.250076866  0.374918124  0.000170681
     0.250303263  0.375053136  0.500264651
     0.250137613  0.624929841  0.999624616
     0.249960100  0.625258589  0.499843623
     0.249940715  0.874978635  0.000020664
     0.249863375  0.875161397  0.499935909
     0.416613245  0.124679491  0.000330216
     0.416625385  0.124757133  0.500117216
     0.416722663  0.374694361  0.000150462
     0.417771469  0.375109932  0.501328227
     0.416715176  0.625017017  0.999650329
     0.416362884  0.626196369  0.499138006
     0.416626071  0.875008816  0.999975295
     0.416590792  0.875240258  0.499885228
     0.583386725  0.124679491  0.000330216
     0.583374585  0.124757133  0.500117216
     0.583277307  0.374694361  0.000150462
     0.582228501  0.375109932  0.501328227
     0.583284794  0.625017017  0.999650329
     0.583637086  0.626196369  0.499138006
     0.583373899  0.875008816  0.999975295
     0.583409178  0.875240258  0.499885228
     0.750048425  0.124879339  0.000170652
     0.750043414  0.124910303  0.500080851
     0.749923134  0.374918124  0.000170681
     0.749696737  0.375053136  0.500264651
     0.749862387  0.624929841  0.999624616
     0.750039900  0.625258589  0.499843623
     0.750059285  0.874978635  0.000020664
     0.750136625  0.875161397  0.499935909
     0.916685444  0.124990504  0.000095846
     0.916681575  0.125027647  0.500034685
     0.916626992  0.374994245  0.000077718
     0.916559269  0.375043434  0.500120396
     0.916621885  0.624957037  0.999854643
     0.916654251  0.625030015  0.499936941
     0.916687268  0.874975403  0.000024892
     0.916719713  0.875034455  0.499979131
     0.000000000  0.083359927  0.333345259
     0.000000000  0.083321439  0.833393603
     0.000000000  0.333381411  0.333468795
     0.000000000  0.333326991  0.833407434
     0.000000000  0.583329377  0.333258263
     0.000000000  0.583296667  0.833235098
     0.000000000  0.833335794  0.333277161
     0.000000000  0.833299122  0.833354407
     0.166636080  0.083355494  0.333357456
     0.166587711  0.083235199  0.833430610
     0.166789847  0.333397109  0.333535451
     0.166717370  0.333245875  0.833452197
     0.166710316  0.583394161  0.333198815
     0.166810176  0.583320771  0.833160758
     0.166601505  0.833393873  0.333251449
     0.166606762  0.833321169  0.833351952
     0.333288816  0.083294401  0.333400504
     0.333198626  0.082989635  0.833550513
     0.333666262  0.333458926  0.333914994
     0.333296898  0.332854354  0.833671290
     0.333329777  0.583582589  0.333058075
     0.333658842  0.583267968  0.832457139
     0.333242225  0.833539094  0.333152327
     0.333246763  0.833413063  0.833317386
     0.500000000  0.083244593  0.333442994
     0.500000000  0.082932227  0.833569819
     0.500000000  0.333340947  0.333624496
     0.500000000  0.331301465  0.835253259
     0.500000000  0.584130160  0.332223012
     0.500000000  0.583547361  0.832955958
     0.500000000  0.833580887  0.333123510
     0.500000000  0.833465646  0.833287612
     0.666711214  0.083294401  0.333400504
     0.666801404  0.082989635  0.833550513
     0.666333768  0.333458926  0.333914994
     0.666703132  0.332854354  0.833671290
     0.666670253  0.583582589  0.333058075
     0.666341188  0.583267968  0.832457139
     0.666757805  0.833539094  0.333152327
     0.666753267  0.833413063  0.833317386
     0.833363905  0.083355494  0.333357456
     0.833412274  0.083235199  0.833430610
     0.833210138  0.333397109  0.333535451
     0.833282615  0.333245875  0.833452197
     0.833289669  0.583394161  0.333198815
     0.833189809  0.583320771  0.833160758
     0.833398480  0.833393873  0.333251449
     0.833393223  0.833321169  0.833351952
     0.083352930  0.208366944  0.333425055
     0.083337578  0.208309489  0.833442495
     0.083403999  0.458372297  0.333392328
     0.083428072  0.458308592  0.833289468
     0.083335822  0.708340138  0.333224552
     0.083342106  0.708301829  0.833287434
     0.083306610  0.958359983  0.333313638
     0.083291565  0.958303359  0.833386982
     0.250040975  0.208333429  0.333501266
     0.249944466  0.208070354  0.833539637
     0.250144457  0.458449487  0.333451658
     0.250159936  0.458246671  0.833261306
     0.249954563  0.708486712  0.333151662
     0.249986088  0.708383751  0.833255690
     0.249914281  0.958388378  0.333290528
     0.249874977  0.958254541  0.833411201
     0.416668026  0.208229117  0.333531639
     0.416504773  0.207481351  0.833941411
     0.417071603  0.458656473  0.333940157
     0.416984542  0.457687439  0.831761009
     0.416592733  0.708796174  0.332826365
     0.416631497  0.708581542  0.833188076
     0.416610067  0.958399388  0.333277919
     0.416598111  0.958229300  0.833423648
     0.583331944  0.208229117  0.333531639
     0.583495197  0.207481351  0.833941411
     0.582928367  0.458656473  0.333940157
     0.583015428  0.457687439  0.831761009
     0.583407237  0.708796174  0.332826365
     0.583368473  0.708581542  0.833188076
     0.583389903  0.958399388  0.333277919
     0.583401859  0.958229300  0.833423648
     0.749959025  0.208333429  0.333501266
     0.750055534  0.208070354  0.833539637
     0.749855543  0.458449487  0.333451658
     0.749840064  0.458246671  0.833261306
     0.750045437  0.708486712  0.333151662
     0.750013912  0.708383751  0.833255690
     0.750085719  0.958388378  0.333290528
     0.750125023  0.958254541  0.833411201
     0.916647093  0.208366944  0.333425055
     0.916662445  0.208309489  0.833442495
     0.916596024  0.458372297  0.333392328
     0.916571951  0.458308592  0.833289468
     0.916664201  0.708340138  0.333224552
     0.916657917  0.708301829  0.833287434
     0.916693413  0.958359983  0.333313638
     0.916708458  0.958303359  0.833386982
     0.000000000  0.166689606  0.166752382
     0.000000000  0.166685659  0.666723770
     0.000000000  0.416687599  0.166727443
     0.000000000  0.416691370  0.666706185
     0.000000000  0.666641998  0.166549655
     0.000000000  0.666639999  0.666634829
     0.000000000  0.916662089  0.166659717
     0.000000000  0.916664129  0.666687138
     0.166660194  0.166678066  0.166795162
     0.166617911  0.166568998  0.666784198
     0.166746426  0.416688935  0.166768871
     0.167146596  0.416683100  0.666771822
     0.166694663  0.666649256  0.166463646
     0.166644519  0.666723362  0.666595449
     0.166612298  0.916671423  0.166665401
     0.166518347  0.916705502  0.666681336
     0.333326817  0.166580830  0.166868215
     0.333106464  0.165963471  0.666906539
     0.333528276  0.416716036  0.166904823
     0.334754852  0.416598120  0.667317950
     0.333342857  0.666748909  0.166382434
     0.332923178  0.667667627  0.666442008
     0.333276860  0.916695787  0.166637153
     0.333201573  0.916745934  0.666669776
     0.500000000  0.166487975  0.167000516
     0.500000000  0.165765827  0.666931167
     0.500000000  0.416695574  0.166822406
     0.500000000  0.666906925  0.166153990
     0.500000000  0.667999050  0.666418927
     0.500000000  0.916696490  0.166611203
     0.500000000  0.916758953  0.666654858
     0.666673213  0.166580830  0.166868215
     0.666893566  0.165963471  0.666906539
     0.666471754  0.416716036  0.166904823
     0.665245178  0.416598120  0.667317950
     0.666657173  0.666748909  0.166382434
     0.667076852  0.667667627  0.666442008
     0.666723170  0.916695787  0.166637153
     0.666798457  0.916745934  0.666669776
     0.833339791  0.166678066  0.166795162
     0.833382074  0.166568998  0.666784198
     0.833253559  0.416688935  0.166768871
     0.832853389  0.416683100  0.666771822
     0.833305322  0.666649256  0.166463646
     0.833355466  0.666723362  0.666595449
     0.833387687  0.916671423  0.166665401
     0.833481638  0.916705502  0.666681336
     0.083315034  0.041672721  0.166693618
     0.083275573  0.041663996  0.666693402
     0.083363383  0.291704593  0.166817878
     0.083381091  0.291674087  0.666754094
     0.083368319  0.541654567  0.166574162
     0.083528193  0.541676794  0.666653803
     0.083321331  0.791653899  0.166601010
     0.083288338  0.791665480  0.666648156
     0.249951285  0.041646708  0.166706789
     0.249836132  0.041490048  0.666717136
     0.250104384  0.291686938  0.166940109
     0.250107843  0.291394731  0.666866398
     0.250102913  0.541658034  0.166410170
     0.250699856  0.541819819  0.666634629
     0.249965725  0.791698570  0.166537354
     0.249820876  0.791969818  0.666585476
     0.416633856  0.041599712  0.166773230
     0.416584969  0.041376604  0.666770105
     0.416684874  0.291585368  0.166962753
     0.416102981  0.289377095  0.667445339
     0.416701656  0.541703136  0.166411056
     0.416639486  0.791808919  0.166427711
     0.416553022  0.792177219  0.666550199
     0.583366114  0.041599712  0.166773230
     0.583415001  0.041376604  0.666770105
     0.583315096  0.291585368  0.166962753
     0.583896989  0.289377095  0.667445339
     0.583298314  0.541703136  0.166411056
     0.583360484  0.791808919  0.166427711
     0.583446948  0.792177219  0.666550199
     0.750048715  0.041646708  0.166706789
     0.750163868  0.041490048  0.666717136
     0.749895616  0.291686938  0.166940109
     0.749892157  0.291394731  0.666866398
     0.749897087  0.541658034  0.166410170
     0.749300144  0.541819819  0.666634629
     0.750034275  0.791698570  0.166537354
     0.750179124  0.791969818  0.666585476
     0.916684989  0.041672721  0.166693618
     0.916724450  0.041663996  0.666693402
     0.916636640  0.291704593  0.166817878
     0.916618932  0.291674087  0.666754094
     0.916631704  0.541654567  0.166574162
     0.916471830  0.541676794  0.666653803
     0.916678692  0.791653899  0.166601010
     0.916711685  0.791665480  0.666648156
     0.000000000  0.000005432  0.125005286
     0.000000000  0.000003392  0.624977880
     0.000000000  0.250025523  0.125115348
     0.000000000  0.250027522  0.625030189
     0.000000000  0.499979922  0.124937560
     0.000000000  0.499976151  0.624958833
     0.000000000  0.749977900  0.124912621
     0.000000000  0.749981847  0.624941248
     0.166612298  0.999996098  0.124999602
     0.166518347  0.999962019  0.624983682
     0.166694663  0.250018265  0.125201357
     0.166644519  0.249944159  0.625069569
     0.166746426  0.499978586  0.124896132
     0.167146596  0.499984421  0.624893196
     0.166660194  0.749989440  0.124869841
     0.166617911  0.750098508  0.624880820
     0.333276860  0.999971734  0.125027850
     0.333201573  0.999921587  0.624995242
     0.333342857  0.249918612  0.125282569
     0.332923178  0.248999894  0.625223010
     0.333528276  0.499951485  0.124760180
     0.334754852  0.500069401  0.624347068
     0.333326817  0.750086676  0.124796788
     0.333106464  0.750704035  0.624758479
     0.500000000  0.999971031  0.125053800
     0.500000000  0.999908568  0.625010160
     0.500000000  0.249760596  0.125511013
     0.500000000  0.248668471  0.625246091
     0.500000000  0.499971947  0.124842597
     0.500000000  0.750179531  0.124664487
     0.500000000  0.750901679  0.624733851
     0.666723170  0.999971734  0.125027850
     0.666798457  0.999921587  0.624995242
     0.666657173  0.249918612  0.125282569
     0.667076852  0.248999894  0.625223010
     0.666471754  0.499951485  0.124760180
     0.665245178  0.500069401  0.624347068
     0.666673213  0.750086676  0.124796788
     0.666893566  0.750704035  0.624758479
     0.833387687  0.999996098  0.124999602
     0.833481638  0.999962019  0.624983682
     0.833305322  0.250018265  0.125201357
     0.833355466  0.249944159  0.625069569
     0.833253559  0.499978586  0.124896132
     0.832853389  0.499984421  0.624893196
     0.833339791  0.749989440  0.124869841
     0.833382074  0.750098508  0.624880820
     0.083321331  0.125013622  0.125063993
     0.083288338  0.125002041  0.625016862
     0.083368319  0.375012954  0.125090841
     0.083528193  0.374990727  0.625011215
     0.083363383  0.624962898  0.124847125
     0.083381091  0.624993404  0.624910924
     0.083315034  0.874994778  0.124971385
     0.083275573  0.875003503  0.624971616
     0.249965725  0.124968951  0.125127649
     0.249820876  0.124697703  0.625079542
     0.250102913  0.375009487  0.125254833
     0.250699856  0.374847702  0.625030389
     0.250104384  0.624980553  0.124724894
     0.250107843  0.625272760  0.624798620
     0.249951285  0.875020791  0.124958214
     0.249836132  0.875177451  0.624947882
     0.416639486  0.124858602  0.125237292
     0.416553022  0.124490302  0.625114819
     0.416701656  0.374964385  0.125253947
     0.416684874  0.625082123  0.124702250
     0.416102981  0.627290396  0.624219679
     0.416633856  0.875067787  0.124891773
     0.416584969  0.875290895  0.624894913
     0.583360484  0.124858602  0.125237292
     0.583446948  0.124490302  0.625114819
     0.583298314  0.374964385  0.125253947
     0.583315096  0.625082123  0.124702250
     0.583896989  0.627290396  0.624219679
     0.583366114  0.875067787  0.124891773
     0.583415001  0.875290895  0.624894913
     0.750034275  0.124968951  0.125127649
     0.750179124  0.124697703  0.625079542
     0.749897087  0.375009487  0.125254833
     0.749300144  0.374847702  0.625030389
     0.749895616  0.624980553  0.124724894
     0.749892157  0.625272760  0.624798620
     0.750048715  0.875020791  0.124958214
     0.750163868  0.875177451  0.624947882
     0.916678692  0.125013622  0.125063993
     0.916711685  0.125002041  0.625016862
     0.916631704  0.375012954  0.125090841
     0.916471830  0.374990727  0.625011215
     0.916636640  0.624962898  0.124847125
     0.916618932  0.624993404  0.624910924
     0.916684989  0.874994778  0.124971385
     0.916724450  0.875003503  0.624971616
     0.000000000  0.083365858  0.458315647
     0.000000000  0.083329186  0.958392923
     0.000000000  0.333368321  0.458434956
     0.000000000  0.333335611  0.958411821
     0.000000000  0.583337997  0.458262620
     0.000000000  0.583283577  0.958201289
     0.000000000  0.833343541  0.458276451
     0.000000000  0.833305053  0.958324825
     0.166606762  0.083343811  0.458318102
     0.166601505  0.083271107  0.958418635
     0.166810176  0.333344217  0.458509296
     0.166710316  0.333270827  0.958471269
     0.166717370  0.583419113  0.458217857
     0.166789847  0.583267879  0.958134633
     0.166587711  0.833429781  0.458239444
     0.166636080  0.833309486  0.958312628
     0.333246763  0.083251917  0.458352668
     0.333242225  0.083125886  0.958517757
     0.333658842  0.333397020  0.459212915
     0.333329777  0.333082399  0.958612009
     0.333296898  0.583810634  0.457998764
     0.333666262  0.583206062  0.957755090
     0.333198626  0.833675345  0.458119541
     0.333288816  0.833370579  0.958269580
     0.500000000  0.083199334  0.458382442
     0.500000000  0.083084093  0.958546574
     0.500000000  0.333117627  0.458714096
     0.500000000  0.332534828  0.959447072
     0.500000000  0.585363523  0.456416795
     0.500000000  0.583324041  0.958045588
     0.500000000  0.833732753  0.458100235
     0.500000000  0.833420387  0.958227090
     0.666753267  0.083251917  0.458352668
     0.666757805  0.083125886  0.958517757
     0.666341188  0.333397020  0.459212915
     0.666670253  0.333082399  0.958612009
     0.666703132  0.583810634  0.457998764
     0.666333768  0.583206062  0.957755090
     0.666801404  0.833675345  0.458119541
     0.666711214  0.833370579  0.958269580
     0.833393223  0.083343811  0.458318102
     0.833398480  0.083271107  0.958418635
     0.833189809  0.333344217  0.458509296
     0.833289669  0.333270827  0.958471269
     0.833282615  0.583419113  0.458217857
     0.833210138  0.583267879  0.958134633
     0.833412274  0.833429781  0.458239444
     0.833363905  0.833309486  0.958312628
     0.083342106  0.208363144  0.458382620
     0.083335822  0.208324835  0.958445532
     0.083428072  0.458356366  0.458380586
     0.083403999  0.458292661  0.958277756
     0.083337578  0.708355484  0.458227559
     0.083352930  0.708298029  0.958245029
     0.083291565  0.958361599  0.458283072
     0.083306610  0.958304975  0.958356446
     0.249986088  0.208281222  0.458414364
     0.249954563  0.208178261  0.958518422
     0.250159936  0.458418287  0.458408748
     0.250144457  0.458215471  0.958218426
     0.249944466  0.708594619  0.458130417
     0.250040975  0.708331544  0.958168818
     0.249874977  0.958410417  0.458258853
     0.249914281  0.958276580  0.958379556
     0.416631497  0.208083431  0.458481978
     0.416592733  0.207868799  0.958843719
     0.416984542  0.458977519  0.459909045
     0.417071603  0.458008485  0.957729927
     0.416504773  0.709183622  0.457728643
     0.416668026  0.708435856  0.958138445
     0.416598111  0.958435658  0.458246406
     0.416610067  0.958265570  0.958392165
     0.583368473  0.208083431  0.458481978
     0.583407237  0.207868799  0.958843719
     0.583015428  0.458977519  0.459909045
     0.582928367  0.458008485  0.957729927
     0.583495197  0.709183622  0.457728643
     0.583331944  0.708435856  0.958138445
     0.583401859  0.958435658  0.458246406
     0.583389903  0.958265570  0.958392165
     0.750013912  0.208281222  0.458414364
     0.750045437  0.208178261  0.958518422
     0.749840064  0.458418287  0.458408748
     0.749855543  0.458215471  0.958218426
     0.750055534  0.708594619  0.458130417
     0.749959025  0.708331544  0.958168818
     0.750125023  0.958410417  0.458258853
     0.750085719  0.958276580  0.958379556
     0.916657917  0.208363144  0.458382620
     0.916664201  0.208324835  0.958445532
     0.916571951  0.458356366  0.458380586
     0.916596024  0.458292661  0.958277756
     0.916662445  0.708355484  0.458227559
     0.916647093  0.708298029  0.958245029
     0.916708458  0.958361599  0.458283072
     0.916693413  0.958304975  0.958356446
     0.000000000  0.166704689  0.291715007
     0.000000000  0.166664553  0.791715881
     0.000000000  0.416692742  0.291731979
     0.000000000  0.416643368  0.791625186
     0.000000000  0.666647688  0.291548859
     0.000000000  0.666623422  0.791584588
     0.000000000  0.916682175  0.291614369
     0.000000000  0.916634322  0.791672136
     0.166657653  0.166700141  0.291738725
     0.166592629  0.166556039  0.791755713
     0.166769168  0.416712771  0.291780287
     0.166837598  0.416586806  0.791650783
     0.166689667  0.666713536  0.291484468
     0.166711338  0.666674082  0.791545481
     0.166600686  0.916714571  0.291604098
     0.166564532  0.916644609  0.791673787
     0.333314283  0.166623267  0.291814044
     0.333154443  0.166150039  0.791939047
     0.333571590  0.416835266  0.292231153
     0.333482266  0.416343699  0.791722178
     0.333312311  0.666913980  0.291366509
     0.333409287  0.666916892  0.791360558
     0.333263743  0.916783275  0.291556743
     0.333223627  0.916680940  0.791663305
     0.500000000  0.166555785  0.291875506
     0.500000000  0.166068190  0.791998227
     0.500000000  0.416783111  0.292055021
     0.500000000  0.667268219  0.290922539
     0.500000000  0.667136964  0.791425470
     0.500000000  0.916797964  0.291546909
     0.500000000  0.916697973  0.791657255
     0.666685747  0.166623267  0.291814044
     0.666845587  0.166150039  0.791939047
     0.666428440  0.416835266  0.292231153
     0.666517764  0.416343699  0.791722178
     0.666687719  0.666913980  0.291366509
     0.666590743  0.666916892  0.791360558
     0.666736287  0.916783275  0.291556743
     0.666776403  0.916680940  0.791663305
     0.833342332  0.166700141  0.291738725
     0.833407356  0.166556039  0.791755713
     0.833230817  0.416712771  0.291780287
     0.833162387  0.416586806  0.791650783
     0.833310318  0.666713536  0.291484468
     0.833288647  0.666674082  0.791545481
     0.833399299  0.916714571  0.291604098
     0.833435453  0.916644609  0.791673787
     0.083312755  0.041692096  0.291640096
     0.083280310  0.041633044  0.791685827
     0.083378138  0.291710454  0.291810345
     0.083345772  0.291637476  0.791728017
     0.083373031  0.541673276  0.291587270
     0.083440754  0.541624087  0.791544562
     0.083314579  0.791677017  0.291569142
     0.083318448  0.791639874  0.791630273
     0.249940715  0.041688864  0.291644324
     0.249863375  0.041506102  0.791729049
     0.250137613  0.291737650  0.292040372
     0.249960100  0.291408902  0.791821335
     0.250076866  0.541749397  0.291494307
     0.250303263  0.541614385  0.791400307
     0.249951575  0.791788182  0.291494336
     0.249956586  0.791757218  0.791584107
     0.416626071  0.041658683  0.291689693
     0.416590792  0.041427241  0.791779730
     0.416715176  0.291650474  0.292014659
     0.416362884  0.290471122  0.792526952
     0.416722663  0.541973160  0.291514526
     0.417771469  0.541557589  0.790336731
     0.416613245  0.791988030  0.291334772
     0.416625385  0.791910388  0.791547742
     0.583373899  0.041658683  0.291689693
     0.583409178  0.041427241  0.791779730
     0.583284794  0.291650474  0.292014659
     0.583637086  0.290471122  0.792526952
     0.583277307  0.541973160  0.291514526
     0.582228501  0.541557589  0.790336731
     0.583386725  0.791988030  0.291334772
     0.583374585  0.791910388  0.791547742
     0.750059285  0.041688864  0.291644324
     0.750136625  0.041506102  0.791729049
     0.749862387  0.291737650  0.292040372
     0.750039900  0.291408902  0.791821335
     0.749923134  0.541749397  0.291494307
     0.749696737  0.541614385  0.791400307
     0.750048425  0.791788182  0.291494336
     0.750043414  0.791757218  0.791584107
[...]
 196       0.003    -0.000    -0.003       0.901
 197      -0.006    -0.004     0.007       0.273
 198       0.001     0.000    -0.001       0.673
 199       0.002     0.001    -0.004       0.237
 200       0.002     0.001    -0.002       0.601
 201       0.002    -0.001     0.015      -0.217
 202       0.005     0.003    -0.008       0.245
 203      -0.019     0.017    -0.020      -1.771
 204      -0.004     0.002     0.004       1.561
 205      -0.011     0.009    -0.013      -1.471
 206      -0.001    -0.001     0.002       0.062
 207       0.022     0.016     0.025      -0.226
 208       0.003     0.001    -0.005       0.383
 209       0.081     0.076     0.171      -0.029
 210      -0.013    -0.008     0.016       0.333
 211       0.356     0.346     0.590      -0.017
 212      -0.008    -0.001     0.008       0.840
 213       0.371     0.369     0.607      -0.004
 214      -0.004    -0.000     0.004       0.859
 215      -0.007    -0.006     0.008       0.137
 216       0.011    -0.000     0.025      -0.448
 217       0.009     0.007     0.082      -0.019
 218      -0.017    -0.015     0.024       0.105
 219       0.058     0.051     0.105      -0.068
 220      -0.058    -0.042     0.069       0.221
 221      -0.003     0.002     0.007       0.759
 222      -0.003    -0.002     0.016       0.076
 223       0.003     0.001    -0.005       0.383
 224       0.081     0.076     0.171      -0.029
 225      -0.013    -0.008     0.016       0.333
 226       0.356     0.346     0.590      -0.017
 227      -0.008    -0.001     0.008       0.840
 228       0.371     0.369     0.607      -0.004
 229      -0.004    -0.000     0.004       0.859
 230      -0.007    -0.006     0.008       0.137
 231       0.002     0.001    -0.002       0.601
 232       0.002    -0.001     0.015      -0.217
 233       0.005     0.003    -0.008       0.245
 234      -0.019     0.017    -0.020      -1.771
 235      -0.004     0.002     0.004       1.561
 236      -0.011     0.009    -0.013      -1.471
 237      -0.001    -0.001     0.002       0.062
 238       0.022     0.016     0.025      -0.226
 239      -0.001    -0.000     0.001       0.851
 240       0.003     0.001    -0.004       0.510
 241       0.004     0.001    -0.004       0.630
 242      -0.001    -0.000     0.017       0.070
 243       0.004     0.001    -0.006       0.462
 244      -0.004    -0.003     0.019       0.054
 245      -0.001    -0.001     0.001       0.128
 246       0.004    -0.001    -0.005       0.979
 247      -0.002    -0.000     0.003       0.812
 248       0.009     0.007     0.027      -0.062
 249       0.005    -0.000    -0.007       0.754
 250      -0.007    -0.002     0.044       0.112
 251       0.008    -0.001    -0.009       0.974
 252      -0.014    -0.011     0.052       0.065
 253      -0.002     0.002     0.004       0.930
 254       0.052     0.049     0.092      -0.034
 255      -0.005     0.001     0.005       1.172
 256      -0.003    -0.002     0.019       0.057
 257       0.008     0.001     0.028      -0.228
 258       0.911     0.874     1.566      -0.024
 259       0.016    -0.015    -0.017       1.849
 260       0.002    -0.000    -0.008       0.329
 261      -0.020     0.010    -0.021      -1.424
 262      -0.005     0.001     0.005       1.172
 263      -0.003    -0.002     0.019       0.057
 264       0.008     0.001     0.028      -0.228
 265       0.911     0.874     1.566      -0.024
 266       0.016    -0.015    -0.017       1.849
 267       0.002    -0.000    -0.008       0.329
 268      -0.020     0.010    -0.021      -1.424
 269      -0.002    -0.000     0.003       0.812
 270       0.009     0.007     0.027      -0.062
 271       0.005    -0.000    -0.007       0.754
 272      -0.007    -0.002     0.044       0.112
 273       0.008    -0.001    -0.009       0.974
 274      -0.014    -0.011     0.052       0.065
 275      -0.002     0.002     0.004       0.930
 276       0.052     0.049     0.092      -0.034
 277      -0.001    -0.000     0.001       0.851
 278       0.003     0.001    -0.004       0.510
 279       0.004     0.001    -0.004       0.630
 280      -0.001    -0.000     0.017       0.070
 281       0.004     0.001    -0.006       0.462
 282      -0.004    -0.003     0.019       0.054
 283      -0.001    -0.001     0.001       0.128
 284       0.004    -0.001    -0.005       0.979
 285       0.001     0.000    -0.001       0.673
 286       0.002     0.001    -0.004       0.237
 287       0.003    -0.000    -0.003       0.901
 288      -0.006    -0.004     0.007       0.273
 289       0.005     0.001    -0.006       0.684
 290      -0.010    -0.008     0.012       0.123
 291      -0.001    -0.000     0.002       0.206
 292      -0.002     0.002     0.007       0.669
 293      -0.001    -0.001     0.002       0.062
 294       0.022     0.016     0.025      -0.226
 295      -0.004     0.002     0.004       1.561
 296      -0.011     0.009    -0.013      -1.471
 297       0.005     0.003    -0.008       0.245
 298      -0.019     0.017    -0.020      -1.771
 299       0.002     0.001    -0.002       0.601
 300       0.002    -0.001     0.015      -0.217
 301      -0.004    -0.000     0.004       0.859
 302      -0.007    -0.006     0.008       0.137
 303      -0.008    -0.001     0.008       0.840
 304       0.371     0.369     0.607      -0.004
 305      -0.013    -0.008     0.016       0.333
 306       0.356     0.346     0.590      -0.017
 307       0.003     0.001    -0.005       0.383
 308       0.081     0.076     0.171      -0.029
 309      -0.003     0.002     0.007       0.759
 310      -0.003    -0.002     0.016       0.076
 311       0.058     0.051     0.105      -0.068
 312      -0.058    -0.042     0.069       0.221
 313      -0.017    -0.015     0.024       0.105
 314       0.011    -0.000     0.025      -0.448
 315       0.009     0.007     0.082      -0.019
 316      -0.004    -0.000     0.004       0.859
 317      -0.007    -0.006     0.008       0.137
 318      -0.008    -0.001     0.008       0.840
 319       0.371     0.369     0.607      -0.004
 320      -0.013    -0.008     0.016       0.333
 321       0.356     0.346     0.590      -0.017
 322       0.003     0.001    -0.005       0.383
 323       0.081     0.076     0.171      -0.029
 324      -0.001    -0.001     0.002       0.062
 325       0.022     0.016     0.025      -0.226
 326      -0.004     0.002     0.004       1.561
 327      -0.011     0.009    -0.013      -1.471
 328       0.005     0.003    -0.008       0.245
 329      -0.019     0.017    -0.020      -1.771
 330       0.002     0.001    -0.002       0.601
 331       0.002    -0.001     0.015      -0.217
 332      -0.001    -0.001     0.001       0.128
 333       0.004    -0.001    -0.005       0.979
 334       0.004     0.001    -0.006       0.462
 335      -0.004    -0.003     0.019       0.054
 336       0.004     0.001    -0.004       0.630
 337      -0.001    -0.000     0.017       0.070
 338      -0.001    -0.000     0.001       0.851
 339       0.003     0.001    -0.004       0.510
 340      -0.002     0.002     0.004       0.930
 341       0.052     0.049     0.092      -0.034
 342       0.008    -0.001    -0.009       0.974
 343      -0.014    -0.011     0.052       0.065
 344       0.005    -0.000    -0.007       0.754
 345      -0.007    -0.002     0.044       0.112
 346      -0.002    -0.000     0.003       0.812
 347       0.009     0.007     0.027      -0.062
 348       0.002    -0.000    -0.008       0.329
 349      -0.020     0.010    -0.021      -1.424
 350       0.016    -0.015    -0.017       1.849
 351       0.008     0.001     0.028      -0.228
 352       0.911     0.874     1.566      -0.024
 353      -0.005     0.001     0.005       1.172
 354      -0.003    -0.002     0.019       0.057
 355       0.002    -0.000    -0.008       0.329
 356      -0.020     0.010    -0.021      -1.424
 357       0.016    -0.015    -0.017       1.849
 358       0.008     0.001     0.028      -0.228
 359       0.911     0.874     1.566      -0.024
 360      -0.005     0.001     0.005       1.172
 361      -0.003    -0.002     0.019       0.057
 362      -0.002     0.002     0.004       0.930
 363       0.052     0.049     0.092      -0.034
 364       0.008    -0.001    -0.009       0.974
 365      -0.014    -0.011     0.052       0.065
 366       0.005    -0.000    -0.007       0.754
 367      -0.007    -0.002     0.044       0.112
 368      -0.002    -0.000     0.003       0.812
 369       0.009     0.007     0.027      -0.062
 370      -0.001    -0.001     0.001       0.128
 371       0.004    -0.001    -0.005       0.979
 372       0.004     0.001    -0.006       0.462
 373      -0.004    -0.003     0.019       0.054
 374       0.004     0.001    -0.004       0.630
 375      -0.001    -0.000     0.017       0.070
 376      -0.001    -0.000     0.001       0.851
 377       0.003     0.001    -0.004       0.510
 378       0.002     0.001    -0.003       0.284
 379       0.001     0.001    -0.002       0.294
 380      -0.006    -0.003     0.009       0.295
 381      -0.006    -0.001     0.006       0.760
 382      -0.006    -0.003     0.009       0.264
 383      -0.004     0.001     0.007       0.624
 384       0.002     0.001    -0.003       0.330
 385       0.001     0.001    -0.002       0.247
 386       0.004    -0.002    -0.004       1.459
 387      -0.001    -0.000     0.004       0.217
 388      -0.011    -0.009     0.011       0.195
 389       0.009    -0.004    -0.009       1.439
 390      -0.003    -0.002     0.021       0.071
 391      -0.007    -0.002     0.009       0.534
 392      -0.004    -0.001     0.005       0.488
 393      -0.002    -0.001     0.003       0.234
 394      -0.004    -0.003     0.010       0.148
 395      -0.006    -0.003     0.006       0.477
 396      -0.021    -0.016     0.047       0.107
 397       0.020    -0.017    -0.020       1.830
 398      -0.011     0.010     0.063       0.344
 399      -0.016     0.015    -0.020      -1.500
 400      -0.003    -0.002     0.017       0.054
 401      -0.005    -0.001     0.006       0.644
 402      -0.008    -0.005     0.014       0.270
 403      -0.006    -0.001     0.011       0.483
 404       0.064     0.043     0.177      -0.120
 405       0.348     0.344     0.599      -0.007
 406       0.902     0.863     1.571      -0.025
 407       0.004    -0.002     0.066      -0.102
 408       0.017     0.014     0.055      -0.053
 409       0.005    -0.004     0.010      -0.921
 410      -0.004    -0.003     0.010       0.148
 411      -0.006    -0.003     0.006       0.477
 412      -0.021    -0.016     0.047       0.107
 413       0.020    -0.017    -0.020       1.830
 414      -0.011     0.010     0.063       0.344
 415      -0.016     0.015    -0.020      -1.500
 416      -0.003    -0.002     0.017       0.054
 417      -0.005    -0.001     0.006       0.644
 418       0.004    -0.002    -0.004       1.459
 419      -0.001    -0.000     0.004       0.217
 420      -0.011    -0.009     0.011       0.195
 421       0.009    -0.004    -0.009       1.439
 422      -0.003    -0.002     0.021       0.071
 423      -0.007    -0.002     0.009       0.534
 424      -0.004    -0.001     0.005       0.488
 425      -0.002    -0.001     0.003       0.234
 426      -0.004    -0.003     0.005       0.327
 427      -0.003    -0.001     0.004       0.372
 428      -0.006    -0.002     0.015       0.217
 429      -0.008    -0.001     0.008       0.759
 430      -0.004    -0.002     0.006       0.299
 431      -0.002    -0.001     0.004       0.402
 432       0.002     0.000    -0.003       0.626
 433       0.002     0.000    -0.002       0.842
 434      -0.010     0.007    -0.012      -1.439
 435      -0.003    -0.001     0.012       0.176
 436       0.009     0.006     0.064      -0.039
 437      -0.011    -0.006     0.019       0.287
 438      -0.007    -0.006     0.014       0.096
 439      -0.004    -0.001     0.009       0.355
 440      -0.003    -0.001     0.006       0.225
 441      -0.003    -0.002     0.004       0.382
 442       0.020    -0.016    -0.022       1.684
 443      -0.016     0.009    -0.020      -1.213
 444       0.365     0.355     0.600      -0.016
 445      -0.015    -0.011     0.056       0.063
 446       0.007     0.003     0.080      -0.041
 447      -0.004     0.003     0.024       0.289
 448      -0.004    -0.001     0.014       0.160
 449      -0.005    -0.001     0.006       0.657
 450       0.020    -0.016    -0.022       1.684
 451      -0.016     0.009    -0.020      -1.213
 452       0.365     0.355     0.600      -0.016
 453      -0.015    -0.011     0.056       0.063
 454       0.007     0.003     0.080      -0.041
 455      -0.004     0.003     0.024       0.289
 456      -0.004    -0.001     0.014       0.160
 457      -0.005    -0.001     0.006       0.657
 458      -0.010     0.007    -0.012      -1.439
 459      -0.003    -0.001     0.012       0.176
 460       0.009     0.006     0.064      -0.039
 461      -0.011    -0.006     0.019       0.287
 462      -0.007    -0.006     0.014       0.096
 463      -0.004    -0.001     0.009       0.355
 464      -0.003    -0.001     0.006       0.225
 465      -0.003    -0.002     0.004       0.382
 466      -0.004    -0.003     0.005       0.327
 467      -0.003    -0.001     0.004       0.372
 468      -0.006    -0.002     0.015       0.217
 469      -0.008    -0.001     0.008       0.759
 470      -0.004    -0.002     0.006       0.299
 471      -0.002    -0.001     0.004       0.402
 472       0.002     0.000    -0.003       0.626
 473       0.002     0.000    -0.002       0.842
 474      -0.002    -0.000     0.002       0.561
 475      -0.004    -0.000     0.005       0.689
 476      -0.006     0.000     0.007       0.907
 477      -0.008    -0.005     0.012       0.271
 478      -0.003    -0.000     0.005       0.512
 479      -0.004    -0.002     0.007       0.270
 480       0.001     0.000    -0.002       0.537
 481       0.002     0.001    -0.003       0.336
 482      -0.003    -0.002     0.003       0.446
 483      -0.006    -0.004     0.007       0.208
 484      -0.006     0.002     0.012       0.594
 485      -0.012    -0.009     0.020       0.152
 486      -0.003    -0.001     0.006       0.360
 487      -0.006    -0.005     0.012       0.079
 488      -0.002    -0.001     0.002       0.442
 489      -0.003     0.000     0.005       0.602
 490      -0.006    -0.001     0.008       0.609
 491      -0.017     0.010    -0.019      -1.430
 492      -0.018     0.015    -0.022      -1.510
 493       0.050     0.034     0.166      -0.094
 494      -0.007    -0.005     0.014       0.152
 495      -0.004     0.001     0.046       0.100
 496      -0.003    -0.000     0.007       0.409
 497      -0.005    -0.004     0.007       0.106
 498       0.014     0.006     0.028      -0.309
 499       0.016     0.013     0.063      -0.045
 500       0.015     0.006     0.068      -0.131
 501       0.074     0.063     0.165      -0.069
 502      -0.017     0.010     0.063       0.424
 503       0.003    -0.002     0.014      -0.346
 504      -0.006    -0.003     0.010       0.240
 505      -0.006    -0.001     0.008       0.609
 506      -0.017     0.010    -0.019      -1.430
 507      -0.018     0.015    -0.022      -1.510
 508       0.050     0.034     0.166      -0.094
 509      -0.007    -0.005     0.014       0.152
 510      -0.004     0.001     0.046       0.100
 511      -0.003    -0.000     0.007       0.409
 512      -0.005    -0.004     0.007       0.106
 513      -0.003    -0.002     0.003       0.446
 514      -0.006    -0.004     0.007       0.208
 515      -0.006     0.002     0.012       0.594
 516      -0.012    -0.009     0.020       0.152
 517      -0.003    -0.001     0.006       0.360
 518      -0.006    -0.005     0.012       0.079
 519      -0.002    -0.001     0.002       0.442
 520      -0.003     0.000     0.005       0.602
 521       0.001    -0.000    -0.002       0.890
 522       0.003     0.000    -0.003       0.667
 523      -0.004    -0.000     0.005       0.808
 524      -0.005    -0.004     0.011       0.116
 525      -0.005     0.001     0.008       0.677
 526      -0.007    -0.005     0.013       0.167
 527      -0.002    -0.000     0.002       0.558
 528      -0.003    -0.000     0.004       0.786
 529      -0.003    -0.001     0.004       0.432
 530      -0.005    -0.004     0.005       0.215
 531      -0.005     0.000     0.013       0.394
 532      -0.018    -0.017     0.021       0.045
 533       0.004    -0.002     0.021      -0.286
 534       0.017     0.010     0.062      -0.106
 535      -0.003    -0.002     0.005       0.320
 536       0.001    -0.001     0.015      -0.139
 537      -0.005    -0.001     0.006       0.776
 538      -0.007    -0.006     0.011       0.134
 539      -0.014    -0.009     0.019       0.273
 540      -0.044    -0.034     0.079       0.119
 541       0.004    -0.000     0.054      -0.083
 542       0.356     0.348     0.596      -0.013
 543      -0.005     0.001     0.016       0.339
 544      -0.010    -0.006     0.015       0.271
 545      -0.005    -0.001     0.006       0.776
 546      -0.007    -0.006     0.011       0.134
 547      -0.014    -0.009     0.019       0.273
 548      -0.044    -0.034     0.079       0.119
 549       0.004    -0.000     0.054      -0.083
 550       0.356     0.348     0.596      -0.013
 551      -0.005     0.001     0.016       0.339
 552      -0.010    -0.006     0.015       0.271
 553      -0.003    -0.001     0.004       0.432
 554      -0.005    -0.004     0.005       0.215
 555      -0.005     0.000     0.013       0.394
 556      -0.018    -0.017     0.021       0.045
 557       0.004    -0.002     0.021      -0.286
 558       0.017     0.010     0.062      -0.106
 559      -0.003    -0.002     0.005       0.320
 560       0.001    -0.001     0.015      -0.139
 561       0.001    -0.000    -0.002       0.890
 562       0.003     0.000    -0.003       0.667
 563      -0.004    -0.000     0.005       0.808
 564      -0.005    -0.004     0.011       0.116
 565      -0.005     0.001     0.008       0.677
 566      -0.007    -0.005     0.013       0.167
 567      -0.002    -0.000     0.002       0.558
 568      -0.003    -0.000     0.004       0.786
 569      24.759    24.759    48.337      -0.000
 570      24.759    24.759    48.337      -0.000
 571      -1.009    -0.655    -1.146      -0.309
 572      -1.000    -0.653    -1.136      -0.306
 573      -1.000    -0.653    -1.136      -0.306
 574      -1.000    -0.653    -1.136      -0.306
 575      -1.000    -0.653    -1.136      -0.306
 576      -1.009    -0.655    -1.146      -0.309
 ---------------------------------------------------------------------



--------------------------------------------------------------------------------------------------------


     LOOP+:  cpu time  710.1723: real time  712.4440
    4ORBIT:  cpu time    0.0000: real time    0.0000

 total amount of memory used by VASP MPI-rank0   135651. kBytes
=======================================================================

   base      :      30000. kBytes
   nonlr-proj:       4919. kBytes
   fftplans  :       8132. kBytes
   grid      :      24015. kBytes
   one-center:        147. kBytes
   wavefun   :      68438. kBytes
 
  
  
 General timing and accounting informations for this job:
 ========================================================
  
                  Total CPU time used (sec):      730.449
                            User time (sec):      727.968
                          System time (sec):        2.481
                         Elapsed time (sec):      733.309
  
                   Maximum memory used (kb):      305056.
                   Average memory used (kb):          N/A
  
                          Minor page faults:       219843
                          Major page faults:            5
                 Voluntary context switches:         6266
