 vasp.6.2.0 18Jan21 (build Apr 30 2021 19:00:08) gamma-only                     
  
 executed on             LinuxIFC date 2022.11.10  11:47:53
 running on   48 total cores
 distrk:  each k-point on   48 cores,    1 groups
 distr:  one band on NCORE=  12 cores,    4 groups


--------------------------------------------------------------------------------------------------------


 INCAR:
   SYSTEM = Diamond
   PREC = Normal
   ISTART = 0
   ICHARG = 11
   ISPIN = 2
   MAGMOM = 568*0.0 2*1.0 6*1.0
   NPAR = 4
   NELECT = 2305
   LHYPERFINE = T
   LEFG = T
   ENCUT = 700
   NELM = 1000
   NELMIN = 4
   EDIFF = 1E-06
   LREAL = Auto
   ALGO = Normal
   EDIFFG = -1E-02
   NSW = 0
   IBRION = 2
   ISIF = 2
   ISYM = 2
   POTIM = 0.5
   ISMEAR = 0
   SIGMA = 0.05
   NEDOS = 1000
   LWAVE = F
   LCHARG = F
   LVHAR = F
   LELF = F

 POTCAR:    PAW_PBE C 08Apr2002                   
 POTCAR:    PAW_PBE N 08Apr2002                   
 POTCAR:    PAW_PBE C 08Apr2002                   
 POTCAR:    PAW_PBE C 08Apr2002                   
   VRHFIN =C: s2p2                                                                                  
   LEXCH  = PE                                                                                      
   EATOM  =   147.1560 eV,   10.8157 Ry                                                             
                                                                                                    
   TITEL  = PAW_PBE C 08Apr2002                                                                     
   LULTRA =        F    use ultrasoft PP ?                                                          
   IUNSCR =        1    unscreen: 0-lin 1-nonlin 2-no                                               
   RPACOR =    1.200    partial core radius                                                         
   POMASS =   12.011; ZVAL   =    4.000    mass and valenz                                          
   RCORE  =    1.500    outmost cutoff radius                                                       
   RWIGS  =    1.630; RWIGS  =    0.863    wigner-seitz radius (au A)                               
   ENMAX  =  400.000; ENMIN  =  300.000 eV                                                          
   ICORE  =        2    local potential                                                             
   LCOR   =        T    correct aug charges                                                         
   LPAW   =        T    paw PP                                                                      
   EAUG   =  644.873                                                                                
   DEXC   =    0.000                                                                                
   RMAX   =    1.529    core radius for proj-oper                                                   
   RAUG   =    1.300    factor for augmentation sphere                                              
   RDEP   =    1.501    radius for radial grids                                                     
   RDEPT  =    1.300    core radius for aug-charge                                                  
                                                                                                    
   Atomic configuration                                                                             
    4 entries                                                                                       
     n  l   j            E        occ.                                                              
     1  0  0.50      -273.3789   2.0000                                                             
     2  0  0.50       -13.7508   2.0000                                                             
     2  1  0.50        -5.2854   2.0000                                                             
     3  2  1.50        -5.4423   0.0000                                                             
   Description                                                                                      
     l       E           TYP  RCUT    TYP  RCUT                                                     
     0    -13.7508458     23  1.200                                                                 
     0     -8.2022199     23  1.200                                                                 
     1     -5.2854383     23  1.500                                                                 
     1     34.0145650     23  1.500                                                                 
     2     -5.4423304      7  1.500                                                                 
  local pseudopotential read in
  partial core-charges read in
  partial kinetic energy density read in
  atomic valenz-charges read in
  non local Contribution for L=           0  read in
    real space projection operators read in
  non local Contribution for L=           0  read in
    real space projection operators read in
  non local Contribution for L=           1  read in
    real space projection operators read in
  non local Contribution for L=           1  read in
    real space projection operators read in
    PAW grid and wavefunctions read in
 
   number of l-projection  operators is LMAX  =           4
   number of lm-projection operators is LMMAX =           8
 
 POTCAR:    PAW_PBE N 08Apr2002                   
   VRHFIN =N: s2p3                                                                                  
   LEXCH  = PE                                                                                      
   EATOM  =   264.5486 eV,   19.4438 Ry                                                             
                                                                                                    
   TITEL  = PAW_PBE N 08Apr2002                                                                     
   LULTRA =        F    use ultrasoft PP ?                                                          
   IUNSCR =        1    unscreen: 0-lin 1-nonlin 2-no                                               
   RPACOR =    1.200    partial core radius                                                         
   POMASS =   14.001; ZVAL   =    5.000    mass and valenz                                          
   RCORE  =    1.500    outmost cutoff radius                                                       
   RWIGS  =    1.400; RWIGS  =    0.741    wigner-seitz radius (au A)                               
   ENMAX  =  400.000; ENMIN  =  300.000 eV                                                          
   ICORE  =        2    local potential                                                             
   LCOR   =        T    correct aug charges                                                         
   LPAW   =        T    paw PP                                                                      
   EAUG   =  627.112                                                                                
   DEXC   =    0.000                                                                                
   RMAX   =    1.529    core radius for proj-oper                                                   
   RAUG   =    1.300    factor for augmentation sphere                                              
   RDEP   =    1.514    radius for radial grids                                                     
   RDEPT  =    1.338    core radius for aug-charge                                                  
                                                                                                    
   Atomic configuration                                                                             
    4 entries                                                                                       
     n  l   j            E        occ.                                                              
     1  0  0.50      -384.7179   2.0000                                                             
     2  0  0.50       -18.5828   2.0000                                                             
     2  1  0.50        -7.0898   3.0000                                                             
     3  2  1.50        -6.8029   0.0000                                                             
   Description                                                                                      
     l       E           TYP  RCUT    TYP  RCUT                                                     
     0    -18.5828119     23  1.200                                                                 
     0    -13.5018863     23  1.200                                                                 
     1     -7.0897853     23  1.500                                                                 
     1      9.5240782     23  1.500                                                                 
     2     -6.8029130      7  1.500                                                                 
  local pseudopotential read in
  partial core-charges read in
  partial kinetic energy density read in
  atomic valenz-charges read in
  non local Contribution for L=           0  read in
    real space projection operators read in
  non local Contribution for L=           0  read in
    real space projection operators read in
  non local Contribution for L=           1  read in
    real space projection operators read in
  non local Contribution for L=           1  read in
    real space projection operators read in
    PAW grid and wavefunctions read in
 
   number of l-projection  operators is LMAX  =           4
   number of lm-projection operators is LMMAX =           8
 
 POTCAR:    PAW_PBE C 08Apr2002                   
   VRHFIN =C: s2p2                                                                                  
   LEXCH  = PE                                                                                      
   EATOM  =   147.1560 eV,   10.8157 Ry                                                             
                                                                                                    
   TITEL  = PAW_PBE C 08Apr2002                                                                     
   LULTRA =        F    use ultrasoft PP ?                                                          
   IUNSCR =        1    unscreen: 0-lin 1-nonlin 2-no                                               
   RPACOR =    1.200    partial core radius                                                         
   POMASS =   12.011; ZVAL   =    4.000    mass and valenz                                          
   RCORE  =    1.500    outmost cutoff radius                                                       
   RWIGS  =    1.630; RWIGS  =    0.863    wigner-seitz radius (au A)                               
   ENMAX  =  400.000; ENMIN  =  300.000 eV                                                          
   ICORE  =        2    local potential                                                             
   LCOR   =        T    correct aug charges                                                         
   LPAW   =        T    paw PP                                                                      
   EAUG   =  644.873                                                                                
   DEXC   =    0.000                                                                                
   RMAX   =    1.529    core radius for proj-oper                                                   
   RAUG   =    1.300    factor for augmentation sphere                                              
   RDEP   =    1.501    radius for radial grids                                                     
   RDEPT  =    1.300    core radius for aug-charge                                                  
                                                                                                    
   Atomic configuration                                                                             
    4 entries                                                                                       
     n  l   j            E        occ.                                                              
     1  0  0.50      -273.3789   2.0000                                                             
     2  0  0.50       -13.7508   2.0000                                                             
     2  1  0.50        -5.2854   2.0000                                                             
     3  2  1.50        -5.4423   0.0000                                                             
   Description                                                                                      
     l       E           TYP  RCUT    TYP  RCUT                                                     
     0    -13.7508458     23  1.200                                                                 
     0     -8.2022199     23  1.200                                                                 
     1     -5.2854383     23  1.500                                                                 
     1     34.0145650     23  1.500                                                                 
     2     -5.4423304      7  1.500                                                                 
  local pseudopotential read in
  partial core-charges read in
  partial kinetic energy density read in
  atomic valenz-charges read in
  non local Contribution for L=           0  read in
    real space projection operators read in
  non local Contribution for L=           0  read in
    real space projection operators read in
  non local Contribution for L=           1  read in
    real space projection operators read in
  non local Contribution for L=           1  read in
    real space projection operators read in
    PAW grid and wavefunctions read in
 
   number of l-projection  operators is LMAX  =           4
   number of lm-projection operators is LMMAX =           8
 
 Optimization of the real space projectors (new method)

 maximal supplied QI-value         = 25.13
 optimisation between [QCUT,QGAM] = [ 13.32, 26.89] = [ 49.69,202.52] Ry 
 Optimized for a Real-space Cutoff    1.01 Angstroem

   l    n(q)    QCUT    max X(q) W(low)/X(q) W(high)/X(q)  e(spline) 
   0      8    13.321   115.676    0.29E-03    0.42E-03    0.11E-06
   0      8    13.321    87.132    0.29E-03    0.42E-03    0.11E-06
   1      8    13.321     4.429    0.39E-03    0.33E-03    0.98E-07
   1      8    13.321     2.733    0.30E-03    0.26E-03    0.97E-07
 Optimization of the real space projectors (new method)

 maximal supplied QI-value         = 25.13
 optimisation between [QCUT,QGAM] = [ 13.32, 26.89] = [ 49.69,202.52] Ry 
 Optimized for a Real-space Cutoff    1.01 Angstroem

   l    n(q)    QCUT    max X(q) W(low)/X(q) W(high)/X(q)  e(spline) 
   0      8    13.321    79.467    0.28E-03    0.38E-03    0.11E-06
   0      8    13.321    66.151    0.27E-03    0.38E-03    0.11E-06
   1      8    13.321    23.070    0.40E-03    0.78E-03    0.29E-06
   1      8    13.321    16.668    0.40E-03    0.79E-03    0.30E-06
 Optimization of the real space projectors (new method)

 maximal supplied QI-value         = 25.13
 optimisation between [QCUT,QGAM] = [ 13.32, 26.89] = [ 49.69,202.52] Ry 
 Optimized for a Real-space Cutoff    1.01 Angstroem

   l    n(q)    QCUT    max X(q) W(low)/X(q) W(high)/X(q)  e(spline) 
   0      8    13.321   115.676    0.29E-03    0.42E-03    0.11E-06
   0      8    13.321    87.132    0.29E-03    0.42E-03    0.11E-06
   1      8    13.321     4.429    0.39E-03    0.33E-03    0.98E-07
   1      8    13.321     2.733    0.30E-03    0.26E-03    0.97E-07
  PAW_PBE C 08Apr2002                   :
 energy of atom  1       EATOM= -147.1560
 kinetic energy error for atom=    0.0032 (will be added to EATOM!!)
  PAW_PBE N 08Apr2002                   :
 energy of atom  2       EATOM= -264.5486
 kinetic energy error for atom=    0.0061 (will be added to EATOM!!)
  PAW_PBE C 08Apr2002                   :
 energy of atom  3       EATOM= -147.1560
 kinetic energy error for atom=    0.0032 (will be added to EATOM!!)
 
 
 POSCAR: Autosave
  positions in direct lattice
  velocities in cartesian coordinates
 exchange correlation table for  LEXCH =        8
   RHO(1)=    0.500       N(1)  =     2000
   RHO(2)=  100.500       N(2)  =     4000
 


--------------------------------------------------------------------------------------------------------


 ion  position               nearest neighbor table
   1  0.000  1.000  1.000- 285 1.54 472 1.54 434 1.54 381 1.54
   2  0.000  1.000  0.500- 471 1.54 433 1.54 286 1.54 380 1.54
   3  0.000  0.250  0.000- 287 1.54 383 1.54 466 1.54 428 1.54
   4  0.000  0.250  0.500- 465 1.54 427 1.54 288 1.54 382 1.54
   5  0.000  0.500  0.000- 385 1.54 289 1.54 468 1.54 430 1.54
   6  0.000  0.500  0.500- 290 1.54 384 1.54 467 1.55 429 1.55
   7  0.000  0.750  1.000- 387 1.54 291 1.54 470 1.55 432 1.55
   8  0.000  0.750  0.500- 292 1.54 386 1.54 469 1.55 431 1.55
   9  0.167  0.000  0.000- 293 1.54 434 1.54 389 1.54 442 1.54
  10  0.167  0.000  0.500- 388 1.54 441 1.54 433 1.54 294 1.54
  11  0.167  0.250  0.000- 295 1.54 391 1.54 436 1.54 428 1.54
  12  0.167  0.250  0.500- 427 1.54 296 1.54 435 1.54 390 1.55
  13  0.167  0.500  0.000- 438 1.54 393 1.54 297 1.54 430 1.55
  14  0.167  0.500  0.500- 298 1.54 392 1.54 429 1.55 437 1.55
  15  0.167  0.750  1.000- 395 1.54 432 1.54 299 1.54 440 1.55
  16  0.167  0.750  0.500- 300 1.54 431 1.54 439 1.54 394 1.55
  17  0.333  0.000  1.000- 397 1.54 301 1.54 442 1.54 449 1.54
  18  0.333  0.000  0.500- 396 1.54 448 1.54 441 1.54 302 1.54
  19  0.333  0.250  0.000- 303 1.54 399 1.54 444 1.54 436 1.54
  20  0.333  0.249  0.500- 398 1.54 435 1.54 443 1.54 304 1.54
  21  0.334  0.500  0.000- 445 1.54 401 1.54 438 1.55 305 1.55
  22  0.335  0.500  0.501- 306 1.54 575 1.55 400 1.55 437 1.56
  23  0.333  0.750  1.000- 440 1.54 403 1.54 307 1.54 447 1.54
  24  0.333  0.751  0.500- 446 1.53 402 1.54 308 1.54 439 1.54
  25  0.500  0.000  1.000- 405 1.54 309 1.54 456 1.54 449 1.54
  26  0.500  0.000  0.500- 404 1.54 455 1.54 448 1.54 310 1.54
  27  0.500  0.250  0.000- 407 1.54 311 1.54 451 1.54 444 1.54
  28  0.500  0.249  0.500- 406 1.54 450 1.54 443 1.54 312 1.55
  29  0.500  0.500  0.000- 452 1.54 445 1.54 408 1.54 313 1.55
  30  0.500  0.750  0.999- 314 1.54 410 1.54 454 1.54 447 1.54
  31  0.500  0.751  0.500- 409 1.54 315 1.54 453 1.55 446 1.55
  32  0.667  0.000  1.000- 412 1.54 316 1.54 464 1.54 456 1.54
  33  0.667  0.000  0.500- 411 1.54 455 1.54 463 1.54 317 1.54
  34  0.667  0.250  0.000- 318 1.54 414 1.54 451 1.54 458 1.54
  35  0.667  0.249  0.500- 413 1.54 457 1.54 450 1.54 319 1.54
  36  0.666  0.500  0.000- 452 1.54 416 1.54 460 1.55 320 1.55
  37  0.665  0.500  0.501- 321 1.54 576 1.55 415 1.55 459 1.56
  38  0.667  0.750  1.000- 462 1.54 418 1.54 322 1.54 454 1.54
  39  0.667  0.751  0.500- 453 1.53 417 1.54 323 1.54 461 1.54
  40  0.833  0.000  0.000- 324 1.54 472 1.54 420 1.54 464 1.54
  41  0.833  0.000  0.500- 419 1.54 463 1.54 471 1.54 325 1.54
  42  0.833  0.250  0.000- 326 1.54 422 1.54 458 1.54 466 1.54
  43  0.833  0.250  0.500- 465 1.54 327 1.54 457 1.54 421 1.55
  44  0.833  0.500  0.000- 460 1.54 424 1.54 328 1.54 468 1.55
  45  0.833  0.500  0.500- 329 1.54 423 1.54 467 1.55 459 1.55
  46  0.833  0.750  1.000- 426 1.54 470 1.54 330 1.54 462 1.55
  47  0.833  0.750  0.500- 331 1.54 469 1.54 461 1.54 425 1.55
  48  0.083  0.125  0.000- 332 1.54 389 1.54 381 1.54 428 1.54
  49  0.083  0.125  0.500- 388 1.54 380 1.54 333 1.54 427 1.54
  50  0.083  0.375  0.000- 430 1.54 334 1.54 391 1.54 383 1.55
  51  0.083  0.375  0.500- 335 1.54 390 1.54 429 1.54 382 1.55
  52  0.083  0.625  1.000- 432 1.54 336 1.54 385 1.54 393 1.55
  53  0.084  0.625  0.500- 337 1.54 431 1.54 384 1.55 392 1.55
  54  0.083  0.875  1.000- 338 1.54 434 1.54 387 1.54 395 1.54
  55  0.083  0.875  0.500- 394 1.54 386 1.54 339 1.54 433 1.54
  56  0.250  0.125  0.000- 340 1.54 436 1.54 397 1.54 389 1.54
  57  0.250  0.125  0.500- 435 1.54 388 1.54 396 1.54 341 1.54
  58  0.250  0.375  0.000- 399 1.54 438 1.54 342 1.55 391 1.55
  59  0.250  0.375  0.500- 343 1.54 398 1.54 390 1.54 437 1.55
  60  0.250  0.625  1.000- 393 1.54 440 1.54 344 1.55 401 1.55
  61  0.251  0.625  0.500- 345 1.54 439 1.55 392 1.55 400 1.56
  62  0.250  0.875  1.000- 442 1.54 346 1.54 395 1.54 403 1.54
  63  0.250  0.875  0.500- 402 1.54 441 1.54 347 1.54 394 1.54
  64  0.417  0.125  0.000- 444 1.54 348 1.54 397 1.54 405 1.54
  65  0.417  0.125  0.500- 443 1.54 396 1.54 404 1.54 349 1.54
  66  0.417  0.375  0.000- 399 1.54 407 1.54 350 1.55 445 1.55
  67  0.416  0.373  0.501- 398 1.53 575 1.53 351 1.55 406 1.55
  68  0.417  0.625  1.000- 401 1.54 408 1.54 447 1.55 352 1.55
  69  0.417  0.875  1.000- 449 1.54 354 1.54 403 1.54 410 1.54
  70  0.417  0.876  0.500- 448 1.54 409 1.54 355 1.54 402 1.54
  71  0.583  0.125  0.000- 451 1.54 356 1.54 412 1.54 405 1.54
  72  0.583  0.125  0.500- 450 1.54 411 1.54 404 1.54 357 1.54
  73  0.583  0.375  0.000- 414 1.54 407 1.54 358 1.55 452 1.55
  74  0.584  0.373  0.501- 413 1.53 576 1.53 359 1.55 406 1.55
  75  0.583  0.625  1.000- 416 1.54 408 1.54 454 1.55 360 1.55
  76  0.583  0.875  1.000- 456 1.54 362 1.54 418 1.54 410 1.54
  77  0.583  0.876  0.500- 455 1.54 409 1.54 363 1.54 417 1.54
  78  0.750  0.125  0.000- 364 1.54 458 1.54 412 1.54 420 1.54
  79  0.750  0.125  0.500- 457 1.54 419 1.54 411 1.54 365 1.54
  80  0.750  0.375  0.000- 414 1.54 460 1.54 366 1.55 422 1.55
  81  0.750  0.375  0.500- 367 1.54 413 1.54 421 1.54 459 1.55
  82  0.750  0.625  1.000- 424 1.54 462 1.54 368 1.55 416 1.55
  83  0.749  0.625  0.500- 369 1.54 461 1.55 423 1.55 415 1.56
  84  0.750  0.875  1.000- 464 1.54 370 1.54 426 1.54 418 1.54
  85  0.750  0.875  0.500- 417 1.54 463 1.54 371 1.54 425 1.54
  86  0.917  0.125  0.000- 372 1.54 420 1.54 381 1.54 466 1.54
  87  0.917  0.125  0.500- 419 1.54 380 1.54 373 1.54 465 1.54
  88  0.917  0.375  0.000- 468 1.54 374 1.54 422 1.54 383 1.55
  89  0.917  0.375  0.500- 375 1.54 421 1.54 467 1.54 382 1.55
  90  0.917  0.625  1.000- 470 1.54 376 1.54 385 1.54 424 1.55
  91  0.916  0.625  0.500- 377 1.54 469 1.54 384 1.55 423 1.55
  92  0.917  0.875  1.000- 378 1.54 472 1.54 387 1.54 426 1.54
  93  0.917  0.875  0.500- 425 1.54 386 1.54 379 1.54 471 1.54
  94  0.000  0.083  0.333- 561 1.54 521 1.54 380 1.54 473 1.54
  95  0.000  0.083  0.833- 381 1.54 562 1.54 522 1.54 474 1.54
  96  0.000  0.333  0.333- 382 1.54 475 1.54 563 1.54 523 1.54
  97  0.000  0.333  0.833- 476 1.54 383 1.54 564 1.54 524 1.54
  98  0.000  0.583  0.333- 384 1.54 477 1.54 565 1.55 525 1.55
  99  0.000  0.583  0.833- 478 1.54 385 1.54 566 1.55 526 1.55
 100  0.000  0.833  0.333- 386 1.54 567 1.54 527 1.54 479 1.54
 101  0.000  0.833  0.833- 387 1.54 480 1.54 568 1.54 528 1.54
 102  0.167  0.083  0.333- 521 1.54 529 1.54 481 1.54 388 1.54
 103  0.167  0.083  0.833- 389 1.54 522 1.54 482 1.54 530 1.54
 104  0.167  0.333  0.333- 390 1.54 531 1.54 483 1.54 523 1.54
 105  0.167  0.333  0.834- 484 1.54 532 1.54 524 1.54 391 1.54
 106  0.167  0.583  0.333- 392 1.54 533 1.54 485 1.55 525 1.55
 107  0.167  0.583  0.833- 486 1.54 526 1.54 393 1.54 534 1.55
 108  0.167  0.833  0.333- 535 1.54 394 1.54 487 1.54 527 1.54
 109  0.167  0.833  0.833- 395 1.54 528 1.54 488 1.54 536 1.55
 110  0.333  0.083  0.333- 489 1.54 529 1.54 537 1.54 396 1.54
 111  0.333  0.083  0.833- 490 1.54 397 1.54 538 1.54 530 1.54
 112  0.333  0.333  0.334- 398 1.54 539 1.54 531 1.54 491 1.55
 113  0.333  0.333  0.834- 399 1.54 532 1.54 492 1.54 540 1.54
 114  0.333  0.584  0.333- 400 1.54 541 1.54 533 1.55 493 1.55
 115  0.334  0.583  0.833- 534 1.54 494 1.55 542 1.55 401 1.55
 116  0.333  0.834  0.333- 495 1.54 543 1.54 535 1.54 402 1.54
 117  0.333  0.833  0.833- 403 1.54 496 1.54 536 1.54 544 1.54
 118  0.500  0.083  0.333- 497 1.54 404 1.54 545 1.54 537 1.54
 119  0.500  0.083  0.833- 498 1.54 405 1.54 546 1.54 538 1.54
 120  0.500  0.333  0.334- 547 1.54 539 1.54 406 1.54 499 1.55
 121  0.500  0.333  0.834- 500 1.54 407 1.54 548 1.55 540 1.55
 122  0.500  0.583  0.833- 550 1.54 542 1.54 502 1.55 408 1.55
 123  0.500  0.834  0.333- 503 1.54 409 1.55 551 1.55 543 1.55
 124  0.500  0.833  0.833- 410 1.54 504 1.54 552 1.54 544 1.54
 125  0.667  0.083  0.333- 505 1.54 553 1.54 545 1.54 411 1.54
 126  0.667  0.083  0.833- 506 1.54 412 1.54 554 1.54 546 1.54
 127  0.667  0.333  0.334- 413 1.54 547 1.54 555 1.54 507 1.55
 128  0.667  0.333  0.834- 414 1.54 556 1.54 508 1.54 548 1.54
 129  0.667  0.584  0.333- 415 1.54 549 1.54 557 1.55 509 1.55
 130  0.666  0.583  0.833- 558 1.54 510 1.55 550 1.55 416 1.55
 131  0.667  0.834  0.333- 511 1.54 551 1.54 559 1.54 417 1.54
 132  0.667  0.833  0.833- 418 1.54 512 1.54 560 1.54 552 1.54
 133  0.833  0.083  0.333- 561 1.54 553 1.54 513 1.54 419 1.54
 134  0.833  0.083  0.833- 420 1.54 562 1.54 514 1.54 554 1.54
 135  0.833  0.333  0.333- 421 1.54 555 1.54 515 1.54 563 1.54
 136  0.833  0.333  0.834- 516 1.54 556 1.54 564 1.54 422 1.54
 137  0.833  0.583  0.333- 423 1.54 557 1.54 517 1.55 565 1.55
 138  0.833  0.583  0.833- 518 1.54 566 1.54 424 1.54 558 1.55
 139  0.833  0.833  0.333- 559 1.54 425 1.54 519 1.54 567 1.54
 140  0.833  0.833  0.833- 426 1.54 568 1.54 520 1.54 560 1.55
 141  0.083  0.208  0.333- 427 1.54 481 1.54 473 1.54 523 1.54
 142  0.083  0.208  0.833- 428 1.54 474 1.54 482 1.54 524 1.54
 143  0.083  0.458  0.333- 429 1.54 525 1.54 483 1.54 475 1.55
 144  0.083  0.458  0.833- 526 1.54 430 1.54 484 1.54 476 1.54
 145  0.083  0.708  0.333- 431 1.54 527 1.54 485 1.54 477 1.54
 146  0.083  0.708  0.833- 432 1.54 528 1.54 478 1.55 486 1.55
 147  0.083  0.958  0.333- 487 1.54 479 1.54 433 1.54 521 1.54
 148  0.083  0.958  0.833- 434 1.54 480 1.54 522 1.54 488 1.54
 149  0.250  0.208  0.333- 489 1.54 481 1.54 435 1.54 531 1.55
 150  0.250  0.208  0.834- 532 1.54 436 1.54 482 1.54 490 1.54
 151  0.250  0.458  0.334- 437 1.54 491 1.54 533 1.55 483 1.55
 152  0.250  0.458  0.834- 492 1.54 484 1.54 534 1.55 438 1.55
 153  0.250  0.709  0.333- 493 1.54 439 1.54 485 1.54 535 1.54
 154  0.250  0.708  0.833- 486 1.54 536 1.54 440 1.55 494 1.55
 155  0.250  0.958  0.333- 529 1.54 495 1.54 487 1.54 441 1.54
 156  0.250  0.958  0.833- 442 1.54 530 1.54 488 1.54 496 1.54
 157  0.417  0.208  0.333- 489 1.54 539 1.54 497 1.54 443 1.54
 158  0.417  0.208  0.834- 540 1.54 444 1.54 490 1.54 498 1.55
 159  0.418  0.458  0.335- 499 1.54 575 1.55 541 1.55 491 1.56
 160  0.417  0.458  0.833- 500 1.54 492 1.54 445 1.55 542 1.55
 161  0.416  0.710  0.332- 543 1.54 493 1.54 446 1.55 501 1.55
 162  0.417  0.708  0.833- 494 1.54 502 1.54 447 1.55 544 1.55
 163  0.417  0.959  0.333- 537 1.54 503 1.54 448 1.54 495 1.54
 164  0.417  0.958  0.833- 538 1.54 449 1.54 496 1.54 504 1.54
 165  0.583  0.208  0.333- 505 1.54 547 1.54 497 1.54 450 1.54
 166  0.583  0.208  0.834- 548 1.54 451 1.54 506 1.54 498 1.55
 167  0.582  0.458  0.335- 499 1.54 576 1.55 549 1.55 507 1.56
 168  0.583  0.458  0.833- 500 1.54 508 1.54 452 1.55 550 1.55
 169  0.584  0.710  0.332- 551 1.54 509 1.54 453 1.55 501 1.55
 170  0.583  0.708  0.833- 510 1.54 502 1.54 454 1.55 552 1.55
 171  0.583  0.959  0.333- 545 1.54 503 1.54 455 1.54 511 1.54
 172  0.583  0.958  0.833- 546 1.54 456 1.54 512 1.54 504 1.54
 173  0.750  0.208  0.333- 505 1.54 513 1.54 457 1.54 555 1.55
 174  0.750  0.208  0.834- 556 1.54 458 1.54 514 1.54 506 1.54
 175  0.750  0.458  0.334- 459 1.54 507 1.54 557 1.55 515 1.55
 176  0.750  0.458  0.834- 508 1.54 516 1.54 558 1.55 460 1.55
 177  0.750  0.709  0.333- 509 1.54 461 1.54 517 1.54 559 1.54
 178  0.750  0.708  0.833- 518 1.54 560 1.54 462 1.55 510 1.55
 179  0.750  0.958  0.333- 553 1.54 511 1.54 519 1.54 463 1.54
 180  0.750  0.958  0.833- 464 1.54 554 1.54 520 1.54 512 1.54
 181  0.917  0.208  0.333- 465 1.54 513 1.54 473 1.54 563 1.54
 182  0.917  0.208  0.833- 466 1.54 474 1.54 514 1.54 564 1.54
 183  0.917  0.458  0.333- 467 1.54 565 1.54 515 1.54 475 1.55
 184  0.917  0.458  0.833- 566 1.54 468 1.54 516 1.54 476 1.54
 185  0.917  0.708  0.333- 469 1.54 567 1.54 517 1.54 477 1.54
 186  0.917  0.708  0.833- 470 1.54 568 1.54 478 1.55 518 1.55
 187  0.917  0.958  0.333- 519 1.54 479 1.54 471 1.54 561 1.54
 188  0.917  0.958  0.833- 472 1.54 480 1.54 562 1.54 520 1.54
 189  0.000  0.167  0.167- 473 1.54 372 1.54 332 1.54 287 1.54
 190  0.000  0.167  0.667- 373 1.54 333 1.54 474 1.54 288 1.54
 191  0.000  0.417  0.167- 475 1.54 289 1.54 374 1.55 334 1.55
 192  0.000  0.417  0.667- 476 1.54 290 1.54 375 1.54 335 1.54
 193  0.000  0.667  0.167- 291 1.54 477 1.54 376 1.54 336 1.54
 194  0.000  0.667  0.667- 478 1.54 292 1.54 377 1.55 337 1.55
 195  0.000  0.917  0.167- 378 1.54 338 1.54 479 1.54 285 1.54
 196  0.000  0.917  0.667- 480 1.54 379 1.54 339 1.54 286 1.54
 197  0.167  0.167  0.167- 481 1.54 340 1.54 295 1.54 332 1.54
 198  0.167  0.167  0.667- 333 1.54 296 1.54 482 1.54 341 1.54
 199  0.167  0.417  0.167- 342 1.54 483 1.54 297 1.54 334 1.55
 200  0.167  0.417  0.667- 343 1.54 335 1.54 484 1.54 298 1.55
 201  0.167  0.667  0.167- 299 1.54 485 1.54 336 1.54 344 1.54
 202  0.167  0.667  0.666- 486 1.54 300 1.54 337 1.54 345 1.55
 203  0.167  0.917  0.167- 293 1.54 487 1.54 338 1.54 346 1.54
 204  0.167  0.917  0.667- 488 1.54 347 1.54 339 1.54 294 1.54
 205  0.333  0.167  0.167- 489 1.54 303 1.54 348 1.54 340 1.54
 206  0.333  0.166  0.667- 304 1.54 341 1.54 490 1.54 349 1.54
 207  0.334  0.417  0.167- 350 1.54 305 1.55 491 1.55 342 1.55
 208  0.333  0.416  0.667- 343 1.54 492 1.54 351 1.54 306 1.55
 209  0.333  0.667  0.166- 493 1.54 352 1.54 344 1.54 307 1.54
 210  0.334  0.667  0.666- 345 1.54 308 1.55 494 1.55 353 1.56
 211  0.333  0.917  0.166- 301 1.54 495 1.54 346 1.54 354 1.54
 212  0.333  0.917  0.667- 302 1.54 496 1.54 355 1.54 347 1.54
 213  0.500  0.167  0.167- 311 1.54 497 1.54 356 1.54 348 1.54
 214  0.500  0.166  0.667- 312 1.54 498 1.54 357 1.54 349 1.54
 215  0.500  0.417  0.167- 358 1.54 350 1.54 499 1.55 313 1.55
 216  0.500  0.415  0.669- 574 1.53 500 1.53 359 1.55 351 1.55
 217  0.500  0.667  0.166- 501 1.53 314 1.54 360 1.54 352 1.54
 218  0.500  0.667  0.666- 361 1.54 353 1.54 502 1.55 315 1.55
 219  0.500  0.917  0.166- 309 1.54 503 1.54 362 1.55 354 1.55
 220  0.500  0.917  0.667- 310 1.54 504 1.54 363 1.54 355 1.54
 221  0.667  0.167  0.167- 505 1.54 318 1.54 356 1.54 364 1.54
 222  0.667  0.166  0.667- 319 1.54 365 1.54 506 1.54 357 1.54
 223  0.666  0.417  0.167- 358 1.54 320 1.55 507 1.55 366 1.55
 224  0.667  0.416  0.667- 367 1.54 508 1.54 359 1.54 321 1.55
 225  0.667  0.667  0.166- 509 1.54 360 1.54 368 1.54 322 1.54
 226  0.666  0.667  0.666- 369 1.54 323 1.55 510 1.55 361 1.56
 227  0.667  0.917  0.166- 316 1.54 511 1.54 370 1.54 362 1.54
 228  0.667  0.917  0.667- 317 1.54 512 1.54 363 1.54 371 1.54
 229  0.833  0.167  0.167- 513 1.54 364 1.54 326 1.54 372 1.54
 230  0.833  0.167  0.667- 373 1.54 327 1.54 514 1.54 365 1.54
 231  0.833  0.417  0.167- 366 1.54 515 1.54 328 1.54 374 1.55
 232  0.833  0.417  0.667- 367 1.54 375 1.54 516 1.54 329 1.55
 233  0.833  0.667  0.167- 330 1.54 517 1.54 376 1.54 368 1.54
 234  0.833  0.667  0.666- 518 1.54 331 1.54 377 1.54 369 1.55
 235  0.833  0.917  0.167- 324 1.54 519 1.54 378 1.54 370 1.54
 236  0.833  0.917  0.667- 520 1.54 371 1.54 379 1.54 325 1.54
 237  0.083  0.042  0.167- 293 1.54 521 1.54 285 1.54 332 1.54
 238  0.083  0.042  0.667- 294 1.54 522 1.54 286 1.54 333 1.54
 239  0.083  0.292  0.167- 523 1.54 295 1.54 334 1.54 287 1.54
 240  0.083  0.292  0.667- 296 1.54 335 1.54 524 1.54 288 1.54
 241  0.083  0.542  0.167- 525 1.54 336 1.54 297 1.54 289 1.55
 242  0.083  0.542  0.667- 526 1.54 337 1.54 290 1.55 298 1.55
 243  0.083  0.792  0.167- 338 1.54 527 1.54 299 1.54 291 1.54
 244  0.083  0.792  0.667- 528 1.54 339 1.54 292 1.54 300 1.54
 245  0.250  0.042  0.167- 340 1.54 529 1.54 293 1.54 301 1.54
 246  0.250  0.042  0.667- 341 1.54 294 1.54 530 1.54 302 1.54
 247  0.250  0.292  0.167- 531 1.54 303 1.54 342 1.54 295 1.55
 248  0.250  0.291  0.667- 296 1.54 532 1.54 343 1.54 304 1.54
 249  0.250  0.542  0.167- 305 1.54 533 1.54 344 1.55 297 1.55
 250  0.250  0.542  0.667- 534 1.54 298 1.54 306 1.55 345 1.55
 251  0.250  0.792  0.166- 346 1.54 535 1.54 307 1.54 299 1.54
 252  0.250  0.792  0.667- 536 1.54 300 1.54 308 1.54 347 1.55
 253  0.417  0.042  0.167- 348 1.54 537 1.54 301 1.54 309 1.54
 254  0.417  0.042  0.667- 349 1.54 538 1.54 302 1.54 310 1.54
 255  0.417  0.292  0.167- 539 1.54 303 1.54 311 1.54 350 1.55
 256  0.417  0.291  0.667- 351 1.54 540 1.54 304 1.54 312 1.55
 257  0.417  0.542  0.167- 313 1.54 352 1.55 305 1.55 541 1.56
 258  0.417  0.541  0.665- 306 1.54 574 1.55 353 1.55 542 1.56
 259  0.417  0.792  0.166- 354 1.54 543 1.54 307 1.54 314 1.55
 260  0.417  0.792  0.667- 315 1.54 308 1.54 544 1.54 355 1.54
 261  0.583  0.042  0.167- 356 1.54 545 1.54 316 1.54 309 1.54
 262  0.583  0.042  0.667- 357 1.54 546 1.54 317 1.54 310 1.54
 263  0.583  0.292  0.167- 547 1.54 318 1.54 311 1.54 358 1.55
 264  0.583  0.291  0.667- 359 1.54 548 1.54 319 1.54 312 1.55
 265  0.583  0.542  0.167- 313 1.54 360 1.55 320 1.55 549 1.56
 266  0.583  0.541  0.665- 321 1.54 574 1.55 361 1.55 550 1.56
 267  0.583  0.792  0.166- 362 1.54 551 1.54 322 1.54 314 1.55
 268  0.583  0.792  0.667- 315 1.54 323 1.54 552 1.54 363 1.54
 269  0.750  0.042  0.167- 364 1.54 553 1.54 324 1.54 316 1.54
 270  0.750  0.042  0.667- 365 1.54 325 1.54 554 1.54 317 1.54
 271  0.750  0.292  0.167- 555 1.54 318 1.54 366 1.54 326 1.55
 272  0.750  0.291  0.667- 327 1.54 556 1.54 367 1.54 319 1.54
 273  0.750  0.542  0.167- 320 1.54 557 1.54 368 1.55 328 1.55
 274  0.750  0.542  0.667- 558 1.54 329 1.54 321 1.55 369 1.55
 275  0.750  0.792  0.166- 370 1.54 559 1.54 322 1.54 330 1.54
 276  0.750  0.792  0.667- 560 1.54 331 1.54 323 1.54 371 1.55
 277  0.917  0.042  0.167- 324 1.54 561 1.54 285 1.54 372 1.54
 278  0.917  0.042  0.667- 325 1.54 562 1.54 286 1.54 373 1.54
 279  0.917  0.292  0.167- 563 1.54 326 1.54 374 1.54 287 1.54
 280  0.917  0.292  0.667- 327 1.54 375 1.54 564 1.54 288 1.54
 281  0.917  0.542  0.167- 565 1.54 376 1.54 328 1.54 289 1.55
 282  0.917  0.542  0.667- 566 1.54 377 1.54 290 1.55 329 1.55
 283  0.917  0.792  0.167- 378 1.54 567 1.54 330 1.54 291 1.54
 284  0.917  0.792  0.667- 568 1.54 379 1.54 292 1.54 331 1.54
 285  0.000  0.000  0.125-   1 1.54 277 1.54 237 1.54 195 1.54
 286  0.000  1.000  0.625- 278 1.54 238 1.54   2 1.54 196 1.54
 287  0.000  0.250  0.125-   3 1.54 189 1.54 279 1.54 239 1.54
 288  0.000  0.250  0.625-   4 1.54 280 1.54 240 1.54 190 1.54
 289  0.000  0.500  0.125- 191 1.54   5 1.54 281 1.55 241 1.55
 290  0.000  0.500  0.625-   6 1.54 192 1.54 282 1.55 242 1.55
 291  0.000  0.750  0.125- 193 1.54   7 1.54 283 1.54 243 1.54
 292  0.000  0.750  0.625-   8 1.54 194 1.54 284 1.54 244 1.54
 293  0.167  0.000  0.125-   9 1.54 237 1.54 203 1.54 245 1.54
 294  0.167  1.000  0.625- 238 1.54 246 1.54 204 1.54  10 1.54
 295  0.167  0.250  0.125-  11 1.54 239 1.54 197 1.54 247 1.55
 296  0.167  0.250  0.625- 248 1.54  12 1.54 198 1.54 240 1.54
 297  0.167  0.500  0.125- 199 1.54 241 1.54  13 1.54 249 1.55
 298  0.167  0.500  0.625-  14 1.54 250 1.54 200 1.55 242 1.55
 299  0.167  0.750  0.125- 201 1.54 251 1.54 243 1.54  15 1.54
 300  0.167  0.750  0.625-  16 1.54 252 1.54 202 1.54 244 1.54
 301  0.333  0.000  0.125- 211 1.54  17 1.54 253 1.54 245 1.54
 302  0.333  0.000  0.625- 212 1.54 246 1.54 254 1.54  18 1.54
 303  0.333  0.250  0.125-  19 1.54 205 1.54 247 1.54 255 1.54
 304  0.333  0.249  0.625- 206 1.54 256 1.54 248 1.54  20 1.54
 305  0.334  0.500  0.126- 249 1.54 207 1.55 257 1.55  21 1.55
 306  0.333  0.500  0.625-  22 1.54 258 1.54 250 1.55 208 1.55
 307  0.333  0.750  0.125-  23 1.54 209 1.54 251 1.54 259 1.54
 308  0.333  0.750  0.625-  24 1.54 260 1.54 252 1.54 210 1.55
 309  0.500  0.000  0.125- 219 1.54  25 1.54 261 1.54 253 1.54
 310  0.500  0.000  0.625- 220 1.54  26 1.54 262 1.54 254 1.54
 311  0.500  0.250  0.125-  27 1.54 213 1.54 263 1.54 255 1.54
 312  0.500  0.249  0.625- 214 1.54  28 1.55 264 1.55 256 1.55
 313  0.500  0.500  0.125- 265 1.54 257 1.54 215 1.55  29 1.55
 314  0.500  0.751  0.124- 217 1.54  30 1.54 267 1.55 259 1.55
 315  0.500  0.750  0.625- 268 1.54 260 1.54  31 1.54 218 1.55
 316  0.667  0.000  0.125- 227 1.54  32 1.54 269 1.54 261 1.54
 317  0.667  0.000  0.625- 228 1.54 270 1.54 262 1.54  33 1.54
 318  0.667  0.250  0.125-  34 1.54 221 1.54 271 1.54 263 1.54
 319  0.667  0.249  0.625- 222 1.54 264 1.54 272 1.54  35 1.54
 320  0.666  0.500  0.126- 273 1.54 223 1.55 265 1.55  36 1.55
 321  0.667  0.500  0.625-  37 1.54 266 1.54 274 1.55 224 1.55
 322  0.667  0.750  0.125-  38 1.54 225 1.54 275 1.54 267 1.54
 323  0.667  0.750  0.625-  39 1.54 268 1.54 276 1.54 226 1.55
 324  0.833  0.000  0.125-  40 1.54 277 1.54 235 1.54 269 1.54
 325  0.833  1.000  0.625- 278 1.54 270 1.54 236 1.54  41 1.54
 326  0.833  0.250  0.125-  42 1.54 279 1.54 229 1.54 271 1.55
 327  0.833  0.250  0.625- 272 1.54  43 1.54 230 1.54 280 1.54
 328  0.833  0.500  0.125- 231 1.54 281 1.54  44 1.54 273 1.55
 329  0.833  0.500  0.625-  45 1.54 274 1.54 232 1.55 282 1.55
 330  0.833  0.750  0.125- 233 1.54 275 1.54 283 1.54  46 1.54
 331  0.833  0.750  0.625-  47 1.54 276 1.54 234 1.54 284 1.54
 332  0.083  0.125  0.125-  48 1.54 189 1.54 237 1.54 197 1.54
 333  0.083  0.125  0.625- 198 1.54 190 1.54  49 1.54 238 1.54
 334  0.083  0.375  0.125- 239 1.54  50 1.54 191 1.55 199 1.55
 335  0.083  0.375  0.625-  51 1.54 240 1.54 200 1.54 192 1.54
 336  0.083  0.625  0.125- 241 1.54  52 1.54 201 1.54 193 1.54
 337  0.083  0.625  0.625-  53 1.54 242 1.54 202 1.54 194 1.55
 338  0.083  0.875  0.125-  54 1.54 195 1.54 203 1.54 243 1.54
 339  0.083  0.875  0.625-  55 1.54 204 1.54 244 1.54 196 1.54
 340  0.250  0.125  0.125-  56 1.54 245 1.54 197 1.54 205 1.54
 341  0.250  0.125  0.625- 246 1.54 206 1.54 198 1.54  57 1.54
 342  0.250  0.375  0.125- 199 1.54 247 1.54  58 1.55 207 1.55
 343  0.250  0.375  0.625- 208 1.54  59 1.54 200 1.54 248 1.54
 344  0.250  0.625  0.125- 209 1.54 201 1.54 249 1.55  60 1.55
 345  0.250  0.625  0.625-  61 1.54 210 1.54 250 1.55 202 1.55
 346  0.250  0.875  0.125- 251 1.54  62 1.54 203 1.54 211 1.54
 347  0.250  0.875  0.625- 212 1.54 204 1.54  63 1.54 252 1.55
 348  0.417  0.125  0.125- 253 1.54  64 1.54 205 1.54 213 1.54
 349  0.417  0.125  0.625- 254 1.54 214 1.54  65 1.54 206 1.54
 350  0.417  0.375  0.125- 207 1.54 215 1.54  66 1.55 255 1.55
 351  0.416  0.374  0.626- 256 1.54 208 1.54  67 1.55 216 1.55
 352  0.417  0.625  0.125- 217 1.54 209 1.54  68 1.55 257 1.55
 353  0.418  0.625  0.624- 218 1.54 571 1.55 258 1.55 210 1.56
 354  0.417  0.875  0.125- 259 1.54  69 1.54 211 1.54 219 1.55
 355  0.417  0.875  0.625- 212 1.54 260 1.54 220 1.54  70 1.54
 356  0.583  0.125  0.125- 261 1.54  71 1.54 221 1.54 213 1.54
 357  0.583  0.125  0.625- 262 1.54 214 1.54  72 1.54 222 1.54
 358  0.583  0.375  0.125- 223 1.54 215 1.54  73 1.55 263 1.55
 359  0.584  0.374  0.626- 264 1.54 224 1.54  74 1.55 216 1.55
 360  0.583  0.625  0.125- 217 1.54 225 1.54  75 1.55 265 1.55
 361  0.582  0.625  0.624- 218 1.54 572 1.55 266 1.55 226 1.56
 362  0.583  0.875  0.125- 267 1.54  76 1.54 227 1.54 219 1.55
 363  0.583  0.875  0.625- 228 1.54 268 1.54 220 1.54  77 1.54
 364  0.750  0.125  0.125-  78 1.54 269 1.54 229 1.54 221 1.54
 365  0.750  0.125  0.625- 270 1.54 222 1.54 230 1.54  79 1.54
 366  0.750  0.375  0.125- 231 1.54 271 1.54  80 1.55 223 1.55
 367  0.750  0.375  0.625- 224 1.54  81 1.54 232 1.54 272 1.54
 368  0.750  0.625  0.125- 225 1.54 233 1.54 273 1.55  82 1.55
 369  0.750  0.625  0.625-  83 1.54 226 1.54 274 1.55 234 1.55
 370  0.750  0.875  0.125- 275 1.54  84 1.54 235 1.54 227 1.54
 371  0.750  0.875  0.625- 228 1.54 236 1.54  85 1.54 276 1.55
 372  0.917  0.125  0.125-  86 1.54 189 1.54 277 1.54 229 1.54
 373  0.917  0.125  0.625- 230 1.54 190 1.54  87 1.54 278 1.54
 374  0.917  0.375  0.125- 279 1.54  88 1.54 191 1.55 231 1.55
 375  0.917  0.375  0.625-  89 1.54 280 1.54 232 1.54 192 1.54
 376  0.917  0.625  0.125- 281 1.54  90 1.54 233 1.54 193 1.54
 377  0.917  0.625  0.625-  91 1.54 282 1.54 234 1.54 194 1.55
 378  0.917  0.875  0.125-  92 1.54 195 1.54 235 1.54 283 1.54
 379  0.917  0.875  0.625-  93 1.54 236 1.54 284 1.54 196 1.54
 380  0.000  0.083  0.458-  87 1.54  49 1.54  94 1.54   2 1.54
 381  0.000  0.083  0.958-  95 1.54  86 1.54  48 1.54   1 1.54
 382  0.000  0.333  0.458-  96 1.54   4 1.54  89 1.55  51 1.55
 383  0.000  0.333  0.958-   3 1.54  97 1.54  88 1.55  50 1.55
 384  0.000  0.583  0.458-  98 1.54   6 1.54  91 1.55  53 1.55
 385  0.000  0.583  0.958-   5 1.54  99 1.54  90 1.54  52 1.54
 386  0.000  0.833  0.458-  93 1.54  55 1.54 100 1.54   8 1.54
 387  0.000  0.833  0.958- 101 1.54   7 1.54  92 1.54  54 1.54
 388  0.167  0.083  0.458-  10 1.54  57 1.54  49 1.54 102 1.54
 389  0.167  0.083  0.958- 103 1.54  48 1.54   9 1.54  56 1.54
 390  0.167  0.333  0.458- 104 1.54  51 1.54  59 1.54  12 1.55
 391  0.167  0.333  0.959-  11 1.54  50 1.54 105 1.54  58 1.55
 392  0.167  0.583  0.458- 106 1.54  14 1.54  53 1.55  61 1.55
 393  0.167  0.583  0.958-  60 1.54  13 1.54 107 1.54  52 1.55
 394  0.167  0.833  0.458-  55 1.54 108 1.54  63 1.54  16 1.55
 395  0.167  0.833  0.958- 109 1.54  15 1.54  62 1.54  54 1.54
 396  0.333  0.083  0.458-  18 1.54  65 1.54  57 1.54 110 1.54
 397  0.333  0.083  0.958-  17 1.54 111 1.54  56 1.54  64 1.54
 398  0.333  0.332  0.459-  67 1.53  20 1.54 112 1.54  59 1.54
 399  0.333  0.333  0.959-  58 1.54  19 1.54 113 1.54  66 1.54
 400  0.335  0.583  0.458- 114 1.54 571 1.55  22 1.55  61 1.56
 401  0.334  0.583  0.958-  68 1.54  21 1.54  60 1.55 115 1.55
 402  0.333  0.834  0.458-  24 1.54  63 1.54  70 1.54 116 1.54
 403  0.333  0.833  0.958- 117 1.54  23 1.54  69 1.54  62 1.54
 404  0.500  0.083  0.458-  26 1.54  72 1.54  65 1.54 118 1.54
 405  0.500  0.083  0.958-  25 1.54 119 1.54  71 1.54  64 1.54
 406  0.500  0.332  0.459-  28 1.54 120 1.54  74 1.55  67 1.55
 407  0.500  0.333  0.959- 121 1.54  27 1.54  73 1.54  66 1.54
 408  0.500  0.583  0.958-  75 1.54  68 1.54  29 1.54 122 1.55
 409  0.500  0.834  0.458-  31 1.54  77 1.54  70 1.54 123 1.55
 410  0.500  0.834  0.958-  30 1.54 124 1.54  76 1.54  69 1.54
 411  0.667  0.083  0.458-  33 1.54  72 1.54  79 1.54 125 1.54
 412  0.667  0.083  0.958-  32 1.54 126 1.54  78 1.54  71 1.54
 413  0.667  0.332  0.459-  74 1.53  35 1.54 127 1.54  81 1.54
 414  0.667  0.333  0.959-  80 1.54  34 1.54 128 1.54  73 1.54
 415  0.665  0.583  0.458- 129 1.54 572 1.55  37 1.55  83 1.56
 416  0.666  0.583  0.958-  75 1.54  36 1.54  82 1.55 130 1.55
 417  0.667  0.834  0.458-  39 1.54  85 1.54  77 1.54 131 1.54
 418  0.667  0.833  0.958- 132 1.54  38 1.54  76 1.54  84 1.54
 419  0.833  0.083  0.458-  41 1.54  79 1.54  87 1.54 133 1.54
 420  0.833  0.083  0.958- 134 1.54  86 1.54  40 1.54  78 1.54
 421  0.833  0.333  0.458- 135 1.54  89 1.54  81 1.54  43 1.55
 422  0.833  0.333  0.959-  42 1.54  88 1.54 136 1.54  80 1.55
 423  0.833  0.583  0.458- 137 1.54  45 1.54  91 1.55  83 1.55
 424  0.833  0.583  0.958-  82 1.54  44 1.54 138 1.54  90 1.55
 425  0.833  0.833  0.458-  93 1.54 139 1.54  85 1.54  47 1.55
 426  0.833  0.833  0.958- 140 1.54  46 1.54  84 1.54  92 1.54
 427  0.083  0.208  0.458-  12 1.54   4 1.54 141 1.54  49 1.54
 428  0.083  0.208  0.958- 142 1.54  48 1.54   3 1.54  11 1.54
 429  0.084  0.458  0.458- 143 1.54  51 1.54   6 1.55  14 1.55
 430  0.083  0.458  0.958-  50 1.54 144 1.54   5 1.54  13 1.55
 431  0.083  0.708  0.458- 145 1.54  16 1.54  53 1.54   8 1.55
 432  0.083  0.708  0.958-  52 1.54 146 1.54  15 1.54   7 1.55
 433  0.083  0.958  0.458-  10 1.54   2 1.54 147 1.54  55 1.54
 434  0.083  0.958  0.958- 148 1.54   9 1.54   1 1.54  54 1.54
 435  0.250  0.208  0.458-  20 1.54  57 1.54 149 1.54  12 1.54
 436  0.250  0.208  0.958-  56 1.54 150 1.54  11 1.54  19 1.54
 437  0.251  0.458  0.458- 151 1.54  59 1.55  14 1.55  22 1.56
 438  0.250  0.458  0.959-  13 1.54  58 1.54 152 1.55  21 1.55
 439  0.250  0.709  0.458- 153 1.54  24 1.54  16 1.54  61 1.55
 440  0.250  0.708  0.958-  23 1.54  60 1.54 154 1.55  15 1.55
 441  0.250  0.959  0.458-  63 1.54  10 1.54  18 1.54 155 1.54
 442  0.250  0.958  0.958- 156 1.54  62 1.54  17 1.54   9 1.54
 443  0.417  0.208  0.458-  65 1.54  28 1.54 157 1.54  20 1.54
 444  0.417  0.208  0.959-  64 1.54 158 1.54  19 1.54  27 1.54
 445  0.417  0.458  0.959-  21 1.54  29 1.54  66 1.55 160 1.55
 446  0.416  0.711  0.458-  24 1.53 571 1.53 161 1.55  31 1.55
 447  0.417  0.708  0.958-  23 1.54  30 1.54 162 1.55  68 1.55
 448  0.417  0.959  0.458-  70 1.54  18 1.54  26 1.54 163 1.54
 449  0.417  0.958  0.958-  69 1.54 164 1.54  17 1.54  25 1.54
 450  0.583  0.208  0.458-  72 1.54  28 1.54 165 1.54  35 1.54
 451  0.583  0.208  0.959-  71 1.54 166 1.54  34 1.54  27 1.54
 452  0.583  0.458  0.959-  36 1.54  29 1.54  73 1.55 168 1.55
 453  0.584  0.711  0.458-  39 1.53 572 1.53 169 1.55  31 1.55
 454  0.583  0.708  0.958-  38 1.54  30 1.54 170 1.55  75 1.55
 455  0.583  0.959  0.458-  77 1.54  33 1.54  26 1.54 171 1.54
 456  0.583  0.958  0.958-  76 1.54 172 1.54  32 1.54  25 1.54
 457  0.750  0.208  0.458-  35 1.54  79 1.54 173 1.54  43 1.54
 458  0.750  0.208  0.958-  78 1.54 174 1.54  42 1.54  34 1.54
 459  0.749  0.458  0.458- 175 1.54  81 1.55  45 1.55  37 1.56
 460  0.750  0.458  0.959-  44 1.54  80 1.54 176 1.55  36 1.55
 461  0.750  0.709  0.458- 177 1.54  39 1.54  47 1.54  83 1.55
 462  0.750  0.708  0.958-  38 1.54  82 1.54 178 1.55  46 1.55
 463  0.750  0.959  0.458-  85 1.54  41 1.54  33 1.54 179 1.54
 464  0.750  0.958  0.958- 180 1.54  84 1.54  32 1.54  40 1.54
 465  0.917  0.208  0.458-  43 1.54   4 1.54 181 1.54  87 1.54
 466  0.917  0.208  0.958- 182 1.54  86 1.54   3 1.54  42 1.54
 467  0.916  0.458  0.458- 183 1.54  89 1.54   6 1.55  45 1.55
 468  0.917  0.458  0.958-  88 1.54 184 1.54   5 1.54  44 1.55
 469  0.917  0.708  0.458- 185 1.54  47 1.54  91 1.54   8 1.55
 470  0.917  0.708  0.958-  90 1.54 186 1.54  46 1.54   7 1.55
 471  0.917  0.958  0.458-  41 1.54   2 1.54 187 1.54  93 1.54
 472  0.917  0.958  0.958- 188 1.54  40 1.54   1 1.54  92 1.54
 473  0.000  0.167  0.292- 189 1.54 181 1.54 141 1.54  94 1.54
 474  0.000  0.167  0.792- 182 1.54 142 1.54 190 1.54  95 1.54
 475  0.000  0.417  0.292- 191 1.54  96 1.54 183 1.55 143 1.55
 476  0.000  0.417  0.792-  97 1.54 192 1.54 184 1.54 144 1.54
 477  0.000  0.667  0.292- 193 1.54  98 1.54 185 1.54 145 1.54
 478  0.000  0.667  0.792- 194 1.54  99 1.54 186 1.55 146 1.55
 479  0.000  0.917  0.292- 187 1.54 147 1.54 195 1.54 100 1.54
 480  0.000  0.917  0.792- 196 1.54 188 1.54 148 1.54 101 1.54
 481  0.167  0.167  0.292- 197 1.54 149 1.54 141 1.54 102 1.54
 482  0.167  0.167  0.792- 103 1.54 198 1.54 142 1.54 150 1.54
 483  0.167  0.417  0.292- 199 1.54 104 1.54 143 1.54 151 1.55
 484  0.167  0.417  0.792- 105 1.54 200 1.54 144 1.54 152 1.54
 485  0.167  0.667  0.292- 153 1.54 145 1.54 201 1.54 106 1.55
 486  0.167  0.667  0.791- 154 1.54 202 1.54 107 1.54 146 1.55
 487  0.167  0.917  0.292- 147 1.54 108 1.54 203 1.54 155 1.54
 488  0.167  0.917  0.792- 204 1.54 156 1.54 109 1.54 148 1.54
 489  0.333  0.167  0.292- 110 1.54 205 1.54 157 1.54 149 1.54
 490  0.333  0.166  0.792- 111 1.54 206 1.54 150 1.54 158 1.54
 491  0.334  0.417  0.293- 151 1.54 112 1.55 207 1.55 159 1.56
 492  0.333  0.416  0.792- 208 1.54 160 1.54 152 1.54 113 1.54
 493  0.333  0.667  0.291- 153 1.54 209 1.54 161 1.54 114 1.55
 494  0.334  0.667  0.791- 162 1.54 115 1.55 210 1.55 154 1.55
 495  0.333  0.917  0.291- 116 1.54 155 1.54 211 1.54 163 1.54
 496  0.333  0.917  0.792- 212 1.54 117 1.54 164 1.54 156 1.54
 497  0.500  0.167  0.292- 118 1.54 213 1.54 165 1.54 157 1.54
 498  0.500  0.166  0.792- 119 1.54 214 1.54 166 1.55 158 1.55
 499  0.500  0.416  0.292- 167 1.54 159 1.54 215 1.55 120 1.55
 500  0.500  0.416  0.793- 216 1.53 121 1.54 168 1.54 160 1.54
 501  0.500  0.669  0.290- 217 1.53 573 1.53 169 1.55 161 1.55
 502  0.500  0.667  0.791- 170 1.54 162 1.54 218 1.55 122 1.55
 503  0.500  0.917  0.291- 123 1.54 219 1.54 171 1.54 163 1.54
 504  0.500  0.917  0.792- 124 1.54 220 1.54 172 1.54 164 1.54
 505  0.667  0.167  0.292- 125 1.54 221 1.54 165 1.54 173 1.54
 506  0.667  0.166  0.792- 126 1.54 222 1.54 174 1.54 166 1.54
 507  0.666  0.417  0.293- 175 1.54 127 1.55 223 1.55 167 1.56
 508  0.667  0.416  0.792- 224 1.54 168 1.54 176 1.54 128 1.54
 509  0.667  0.667  0.291- 177 1.54 225 1.54 169 1.54 129 1.55
 510  0.666  0.667  0.791- 170 1.54 130 1.55 226 1.55 178 1.55
 511  0.667  0.917  0.291- 131 1.54 179 1.54 227 1.54 171 1.54
 512  0.667  0.917  0.792- 228 1.54 132 1.54 172 1.54 180 1.54
 513  0.833  0.167  0.292- 229 1.54 173 1.54 181 1.54 133 1.54
 514  0.833  0.167  0.792- 134 1.54 230 1.54 182 1.54 174 1.54
 515  0.833  0.417  0.292- 231 1.54 135 1.54 183 1.54 175 1.55
 516  0.833  0.417  0.792- 136 1.54 232 1.54 184 1.54 176 1.54
 517  0.833  0.667  0.292- 177 1.54 185 1.54 233 1.54 137 1.55
 518  0.833  0.667  0.791- 178 1.54 234 1.54 138 1.54 186 1.55
 519  0.833  0.917  0.292- 187 1.54 139 1.54 235 1.54 179 1.54
 520  0.833  0.917  0.792- 236 1.54 180 1.54 140 1.54 188 1.54
 521  0.083  0.042  0.292- 102 1.54 237 1.54  94 1.54 147 1.54
 522  0.083  0.042  0.792- 103 1.54 238 1.54  95 1.54 148 1.54
 523  0.083  0.292  0.292- 239 1.54 141 1.54  96 1.54 104 1.54
 524  0.083  0.292  0.792- 142 1.54 240 1.54 105 1.54  97 1.54
 525  0.083  0.542  0.292- 241 1.54 143 1.54  98 1.55 106 1.55
 526  0.083  0.542  0.792- 242 1.54 144 1.54 107 1.54  99 1.55
 527  0.083  0.792  0.292- 108 1.54 243 1.54 145 1.54 100 1.54
 528  0.083  0.792  0.792- 244 1.54 109 1.54 146 1.54 101 1.54
 529  0.250  0.042  0.292- 155 1.54 102 1.54 245 1.54 110 1.54
 530  0.250  0.042  0.792- 156 1.54 246 1.54 103 1.54 111 1.54
 531  0.250  0.292  0.292- 247 1.54 104 1.54 112 1.54 149 1.55
 532  0.250  0.292  0.792- 150 1.54 248 1.54 113 1.54 105 1.54
 533  0.250  0.542  0.292- 249 1.54 106 1.54 114 1.55 151 1.55
 534  0.250  0.542  0.792- 115 1.54 250 1.54 152 1.55 107 1.55
 535  0.250  0.792  0.291- 108 1.54 251 1.54 153 1.54 116 1.54
 536  0.250  0.792  0.791- 252 1.54 117 1.54 154 1.54 109 1.55
 537  0.417  0.042  0.292- 163 1.54 253 1.54 110 1.54 118 1.54
 538  0.417  0.042  0.792- 164 1.54 254 1.54 111 1.54 119 1.54
 539  0.417  0.291  0.292- 120 1.54 112 1.54 255 1.54 157 1.54
 540  0.417  0.291  0.792- 158 1.54 256 1.54 113 1.54 121 1.55
 541  0.417  0.542  0.293- 114 1.54 573 1.55 159 1.55 257 1.56
 542  0.417  0.541  0.791- 122 1.54 160 1.55 115 1.55 258 1.56
 543  0.417  0.793  0.291- 161 1.54 259 1.54 116 1.54 123 1.55
 544  0.417  0.792  0.791- 260 1.54 117 1.54 124 1.54 162 1.55
 545  0.583  0.042  0.292- 171 1.54 261 1.54 125 1.54 118 1.54
 546  0.583  0.042  0.792- 172 1.54 262 1.54 126 1.54 119 1.54
 547  0.583  0.291  0.292- 120 1.54 127 1.54 263 1.54 165 1.54
 548  0.583  0.291  0.792- 166 1.54 264 1.54 128 1.54 121 1.55
 549  0.583  0.542  0.293- 129 1.54 573 1.55 167 1.55 265 1.56
 550  0.583  0.541  0.791- 122 1.54 168 1.55 130 1.55 266 1.56
 551  0.583  0.793  0.291- 169 1.54 267 1.54 131 1.54 123 1.55
 552  0.583  0.792  0.791- 268 1.54 132 1.54 124 1.54 170 1.55
 553  0.750  0.042  0.292- 179 1.54 133 1.54 269 1.54 125 1.54
 554  0.750  0.042  0.792- 180 1.54 270 1.54 134 1.54 126 1.54
 555  0.750  0.292  0.292- 271 1.54 135 1.54 127 1.54 173 1.55
 556  0.750  0.292  0.792- 174 1.54 272 1.54 128 1.54 136 1.54
 557  0.750  0.542  0.292- 273 1.54 137 1.54 129 1.55 175 1.55
 558  0.750  0.542  0.792- 130 1.54 274 1.54 176 1.55 138 1.55
 559  0.750  0.792  0.291- 139 1.54 275 1.54 177 1.54 131 1.54
 560  0.750  0.792  0.791- 276 1.54 132 1.54 178 1.54 140 1.55
 561  0.917  0.042  0.292- 133 1.54 277 1.54  94 1.54 187 1.54
 562  0.917  0.042  0.792- 134 1.54 278 1.54  95 1.54 188 1.54
 563  0.917  0.292  0.292- 279 1.54 181 1.54  96 1.54 135 1.54
 564  0.917  0.292  0.792- 182 1.54 280 1.54 136 1.54  97 1.54
 565  0.917  0.542  0.292- 281 1.54 183 1.54  98 1.55 137 1.55
 566  0.917  0.542  0.792- 282 1.54 184 1.54 138 1.54  99 1.55
 567  0.917  0.792  0.292- 139 1.54 283 1.54 185 1.54 100 1.54
 568  0.917  0.792  0.792- 284 1.54 140 1.54 186 1.54 101 1.54
 569  0.500  0.487  0.507- 574 1.48 576 1.48 575 1.48
 570  0.500  0.596  0.452- 573 1.48 572 1.48 571 1.48
 571  0.417  0.628  0.498- 570 1.48 446 1.53 353 1.55 400 1.55
 572  0.583  0.628  0.498- 570 1.48 453 1.53 361 1.55 415 1.55
 573  0.500  0.586  0.333- 570 1.48 501 1.53 549 1.55 541 1.55
 574  0.500  0.497  0.626- 569 1.48 216 1.53 266 1.55 258 1.55
 575  0.417  0.456  0.460- 569 1.48  67 1.53 159 1.55  22 1.55
 576  0.583  0.456  0.460- 569 1.48  74 1.53 167 1.55  37 1.55
 
  LATTYP: Found a simple orthorhombic cell.
 ALAT       =    12.3557996750
 B/A-ratio  =     1.2247365795
 C/A-ratio  =     1.4142023056
  
  Lattice vectors:
  
 A1 = (   0.0000000000,   0.0000000000,  12.3557996750)
 A2 = (  15.1325998306,   0.0000000000,   0.0000000000)
 A3 = (   0.0000000000,  17.4736003876,   0.0000000000)


Analysis of symmetry for initial positions (statically):
=====================================================================
 Subroutine PRICEL returns:
 Original cell was already a primitive cell.
 

 Routine SETGRP: Setting up the symmetry group for a 
 simple orthorhombic supercell.


 Subroutine GETGRP returns: Found  4 space group operations
 (whereof  2 operations were pure point group operations)
 out of a pool of  8 trial point group operations.


The static configuration has the point symmetry C_1h.
 The point group associated with its full space group is C_2h.


Analysis of symmetry for dynamics (positions and initial velocities):
=====================================================================
 Subroutine PRICEL returns:
 Original cell was already a primitive cell.
 

 Routine SETGRP: Setting up the symmetry group for a 
 simple orthorhombic supercell.


 Subroutine GETGRP returns: Found  4 space group operations
 (whereof  2 operations were pure point group operations)
 out of a pool of  8 trial point group operations.


The dynamic configuration has the point symmetry C_1h.
 The point group associated with its full space group is C_2h.


Analysis of structural, dynamic, and magnetic symmetry:
=====================================================================
 Subroutine PRICEL returns:
 Original cell was already a primitive cell.
 

 Routine SETGRP: Setting up the symmetry group for a 
 simple orthorhombic supercell.


 Subroutine GETGRP returns: Found  4 space group operations
 (whereof  2 operations were pure point group operations)
 out of a pool of  8 trial point group operations.


The overall configuration has the point symmetry C_1h.
 The point group associated with its full space group is C_2h.


 Subroutine INISYM returns: Found  4 space group operations
 (whereof  2 operations are pure point group operations),
 and found     1 'primitive' translations


----------------------------------------------------------------------------------------

                                     Primitive cell                                     

  volume of cell :    3267.1329

  direct lattice vectors                    reciprocal lattice vectors
    15.132599831  0.000000000  0.000000000     0.066082498  0.000000000  0.000000000
     0.000000000 17.473600388  0.000000000     0.000000000  0.057229190  0.000000000
     0.000000000  0.000000000 12.355799675     0.000000000  0.000000000  0.080933653

  length of vectors
    15.132599831 17.473600388 12.355799675     0.066082498  0.057229190  0.080933653

  position of ions in fractional coordinates (direct lattice)
     0.000000000  0.999994576  0.999994700
     0.000000000  0.999996594  0.500022100
     0.000000000  0.250022149  0.000087485
     0.000000000  0.250018170  0.500058802
     0.000000000  0.500020062  0.000062397
     0.000000000  0.500023856  0.500041134
     0.000000000  0.749974427  0.999884636
     0.000000000  0.749972512  0.499969767
     0.166612260  0.000003903  0.000000404
     0.166518252  0.000038019  0.500016308
     0.166660184  0.250010559  0.000130257
     0.166617897  0.249901512  0.500119202
     0.166746478  0.500021419  0.000103885
     0.167146585  0.500015548  0.500106848
     0.166694702  0.749981775  0.999798620
     0.166644489  0.750055819  0.499930337
     0.333276800  0.000028295  0.999972194
     0.333201585  0.000078471  0.500004670
     0.333326817  0.249913257  0.000203382
     0.333106338  0.249295715  0.500241782
     0.333528323  0.500048511  0.000239814
     0.334754825  0.499930596  0.500652922
     0.333342872  0.750081485  0.999717374
     0.332923205  0.751000069  0.499776986
     0.500000000  0.000028985  0.999946174
     0.500000000  0.000091669  0.499989576
     0.500000000  0.249820344  0.000335547
     0.500000000  0.249098421  0.500266089
     0.500000000  0.500028019  0.000157457
     0.500000000  0.750239533  0.999489072
     0.500000000  0.751331508  0.499753832
     0.666723230  0.000028295  0.999972194
     0.666798445  0.000078471  0.500004670
     0.666673213  0.249913257  0.000203382
     0.666893692  0.249295715  0.500241782
     0.666471707  0.500048511  0.000239814
     0.665245205  0.499930596  0.500652922
     0.666657158  0.750081485  0.999717374
     0.667076825  0.751000069  0.499776986
     0.833387725  0.000003903  0.000000404
     0.833481733  0.000038019  0.500016308
     0.833339801  0.250010559  0.000130257
     0.833382088  0.249901512  0.500119202
     0.833253507  0.500021419  0.000103885
     0.832853400  0.500015548  0.500106848
     0.833305283  0.749981775  0.999798620
     0.833355496  0.750055819  0.499930337
     0.083315013  0.125005225  0.000028653
     0.083275558  0.124996512  0.500028373
     0.083363376  0.375037153  0.000152975
     0.083381110  0.375006572  0.500089172
     0.083368352  0.624987039  0.999909116
     0.083528167  0.625009271  0.499988751
     0.083321318  0.874986358  0.999935974
     0.083286075  0.874998919  0.499983257
     0.249951251  0.124979177  0.000041891
     0.249836174  0.124822507  0.500052136
     0.250104396  0.375019390  0.000275169
     0.250107850  0.374727198  0.500201335
     0.250102959  0.624990548  0.999745132
     0.250699921  0.625152268  0.499969659
     0.249965699  0.875031065  0.999872370
     0.249820908  0.875302283  0.499920479
     0.416633819  0.124932206  0.000108222
     0.416584899  0.124709029  0.500105121
     0.416684905  0.374917792  0.000297887
     0.416102831  0.372709597  0.500780330
     0.416701641  0.625035643  0.999746098
     0.416639483  0.875141442  0.999762614
     0.416552872  0.875509520  0.499885121
     0.583366151  0.124932206  0.000108222
     0.583415071  0.124709029  0.500105121
     0.583315065  0.374917792  0.000297887
     0.583897139  0.372709597  0.500780330
     0.583298329  0.625035643  0.999746098
     0.583360487  0.875141442  0.999762614
     0.583447098  0.875509520  0.499885121
     0.750048749  0.124979177  0.000041891
     0.750163826  0.124822507  0.500052136
     0.749895604  0.375019390  0.000275169
     0.749892150  0.374727198  0.500201335
     0.749897041  0.624990548  0.999745132
     0.749300079  0.625152268  0.499969659
     0.750034301  0.875031065  0.999872370
     0.750179092  0.875302283  0.499920479
     0.916685010  0.125005225  0.000028653
     0.916724465  0.124996512  0.500028373
     0.916636647  0.375037153  0.000152975
     0.916618913  0.375006572  0.500089172
     0.916631671  0.624987039  0.999909116
     0.916471856  0.625009271  0.499988751
     0.916678705  0.874986358  0.999935974
     0.916713948  0.874998919  0.499983257
     0.000000000  0.083365740  0.333327865
     0.000000000  0.083317823  0.833385673
     0.000000000  0.333376611  0.333415499
     0.000000000  0.333352351  0.833451171
     0.000000000  0.583356678  0.333374851
     0.000000000  0.583307237  0.833268112
     0.000000000  0.833335469  0.333284056
     0.000000000  0.833295249  0.833284961
     0.166564537  0.083355418  0.333326191
     0.166600620  0.083285413  0.833395941
     0.166711350  0.333326037  0.333454615
     0.166689705  0.333286470  0.833515570
     0.166837571  0.583413228  0.333349191
     0.166769182  0.583287165  0.833219660
     0.166592579  0.833443954  0.333244218
     0.166657570  0.833299832  0.833261284
     0.333223542  0.083319089  0.333336703
     0.333263724  0.083216692  0.833443304
     0.333409317  0.333083045  0.333639611
     0.333312289  0.333085954  0.833633503
     0.333482362  0.583656313  0.333277792
     0.333571580  0.583164645  0.832768900
     0.333154517  0.833849888  0.333060918
     0.333314302  0.833376759  0.833185895
     0.500000000  0.083300666  0.333343757
     0.500000000  0.083201999  0.833453046
     0.500000000  0.332863338  0.333574535
     0.500000000  0.332731628  0.834077630
     0.500000000  0.583216884  0.832944995
     0.500000000  0.833931778  0.333001800
     0.500000000  0.833444341  0.833123885
     0.666776488  0.083319089  0.333336703
     0.666736306  0.083216692  0.833443304
     0.666590713  0.333083045  0.333639611
     0.666687741  0.333085954  0.833633503
     0.666517668  0.583656313  0.333277792
     0.666428450  0.583164645  0.832768900
     0.666845513  0.833849888  0.333060918
     0.666685728  0.833376759  0.833185895
     0.833435448  0.083355418  0.333326191
     0.833399365  0.083285413  0.833395941
     0.833288635  0.333326037  0.333454615
     0.833310280  0.333286470  0.833515570
     0.833162414  0.583413228  0.333349191
     0.833230803  0.583287165  0.833219660
     0.833407406  0.833443954  0.333244218
     0.833342415  0.833299832  0.833261284
     0.083318474  0.208360182  0.333369775
     0.083314552  0.208322982  0.833430931
     0.083440735  0.458375917  0.333455472
     0.083373028  0.458326694  0.833412820
     0.083345745  0.708362539  0.333271890
     0.083378155  0.708289454  0.833189563
     0.083280348  0.958366968  0.333314139
     0.083312718  0.958307865  0.833359914
     0.249956408  0.208242897  0.333415908
     0.249951567  0.208211792  0.833505727
     0.250303236  0.458385656  0.333599730
     0.250076896  0.458250562  0.833505720
     0.249960122  0.708591122  0.333178556
     0.250137592  0.708262307  0.832959680
     0.249863311  0.958494000  0.333270877
     0.249940682  0.958311149  0.833355648
     0.416625593  0.208089000  0.333452922
     0.416613279  0.208011869  0.833665305
     0.417771433  0.458442501  0.334663201
     0.416722677  0.458026767  0.833485608
     0.416362956  0.709528877  0.332473032
     0.416715183  0.708349530  0.832985329
     0.416590834  0.958572838  0.333220314
     0.416626146  0.958341236  0.833310224
     0.583374377  0.208089000  0.333452922
     0.583386691  0.208011869  0.833665305
     0.582228537  0.458442501  0.334663201
     0.583277293  0.458026767  0.833485608
     0.583637014  0.709528877  0.332473032
     0.583284787  0.708349530  0.832985329
     0.583409136  0.958572838  0.333220314
     0.583373824  0.958341236  0.833310224
     0.750043592  0.208242897  0.333415908
     0.750048433  0.208211792  0.833505727
     0.749696764  0.458385656  0.333599730
     0.749923104  0.458250562  0.833505720
     0.750039878  0.708591122  0.333178556
     0.749862408  0.708262307  0.832959680
     0.750136689  0.958494000  0.333270877
     0.750059318  0.958311149  0.833355648
     0.916681549  0.208360182  0.333369775
     0.916685471  0.208322982  0.833430931
     0.916559288  0.458375917  0.333455472
     0.916626995  0.458326694  0.833412820
     0.916654278  0.708362539  0.333271890
     0.916621868  0.708289454  0.833189563
     0.916719675  0.958366968  0.333314139
     0.916687305  0.958307865  0.833359914
     0.000000000  0.166695003  0.166675217
     0.000000000  0.166656450  0.666723590
     0.000000000  0.416716501  0.166798807
     0.000000000  0.416661996  0.666737352
     0.000000000  0.666664416  0.166588149
     0.000000000  0.666631622  0.666564881
     0.000000000  0.916670816  0.166607051
     0.000000000  0.916634124  0.666684367
     0.166636066  0.166690554  0.166687450
     0.166587671  0.166570270  0.666760595
     0.166789864  0.416732137  0.166865415
     0.166717383  0.416580907  0.666782159
     0.166710335  0.666729230  0.166528654
     0.166810096  0.666655718  0.666490688
     0.166601514  0.916728918  0.166581342
     0.166606732  0.916656175  0.666681900
     0.333288686  0.166629503  0.166730479
     0.333198552  0.166324493  0.666880512
     0.333666264  0.416793974  0.167244998
     0.333296823  0.416189413  0.667001258
     0.333329869  0.666917729  0.166387924
     0.333658908  0.666602931  0.665787034
     0.333242194  0.916874216  0.166482129
     0.333246759  0.916747984  0.666647261
     0.500000000  0.166579073  0.166774265
     0.500000000  0.166267255  0.666899839
     0.500000000  0.416676014  0.166954367
     0.500000000  0.414636446  0.668583205
     0.500000000  0.667465325  0.165552935
     0.500000000  0.666882372  0.666285932
     0.500000000  0.916915946  0.166453514
     0.500000000  0.916800378  0.666617698
     0.666711344  0.166629503  0.166730479
     0.666801478  0.166324493  0.666880512
     0.666333766  0.416793974  0.167244998
     0.666703207  0.416189413  0.667001258
     0.666670161  0.666917729  0.166387924
     0.666341122  0.666602931  0.665787034
     0.666757836  0.916874216  0.166482129
     0.666753271  0.916747984  0.666647261
     0.833363919  0.166690554  0.166687450
     0.833412314  0.166570270  0.666760595
     0.833210121  0.416732137  0.166865415
     0.833282602  0.416580907  0.666782159
     0.833289650  0.666729230  0.166528654
     0.833189889  0.666655718  0.666490688
     0.833398471  0.916728918  0.166581342
     0.833393253  0.916656175  0.666681900
     0.083306590  0.041695045  0.166643585
     0.083291555  0.041638365  0.666716987
     0.083352902  0.291702031  0.166755041
     0.083337557  0.291644491  0.666772501
     0.083404028  0.541707368  0.166722327
     0.083428084  0.541643595  0.666619474
     0.083335856  0.791675173  0.166554396
     0.083342002  0.791636834  0.666617381
     0.249914215  0.041723384  0.166620555
     0.249874939  0.041589585  0.666741113
     0.250040950  0.291668493  0.166831333
     0.249944421  0.291405360  0.666869699
     0.250144454  0.541784578  0.166781539
     0.250159903  0.541581600  0.666591326
     0.249954543  0.791821793  0.166481568
     0.249986105  0.791718724  0.666585625
     0.416610015  0.041734429  0.166607958
     0.416598072  0.041564380  0.666753621
     0.416668060  0.291564193  0.166861613
     0.416504777  0.290816334  0.667271405
     0.417071642  0.541991525  0.167270084
     0.416984549  0.541022400  0.665091111
     0.416592820  0.792131225  0.166156355
     0.416631785  0.791916727  0.666518060
     0.583389955  0.041734429  0.166607958
     0.583401898  0.041564380  0.666753621
     0.583331910  0.291564193  0.166861613
     0.583495193  0.290816334  0.667271405
     0.582928328  0.541991525  0.167270084
     0.583015421  0.541022400  0.665091111
     0.583407150  0.792131225  0.166156355
     0.583368185  0.791916727  0.666518060
     0.750085785  0.041723384  0.166620555
     0.750125061  0.041589585  0.666741113
     0.749959050  0.291668493  0.166831333
     0.750055579  0.291405360  0.666869699
     0.749855546  0.541784578  0.166781539
     0.749840097  0.541581600  0.666591326
     0.750045457  0.791821793  0.166481568
     0.750013895  0.791718724  0.666585625
     0.916693433  0.041695045  0.166643585
     0.916708468  0.041638365  0.666716987
     0.916647121  0.291702031  0.166755041
     0.916662466  0.291644491  0.666772501
     0.916595995  0.541707368  0.166722327
     0.916571939  0.541643595  0.666619474
     0.916664167  0.791675173  0.166554396
     0.916658021  0.791636834  0.666617381
     0.000000000  0.000014678  0.124949369
     0.000000000  0.999966761  0.625007177
     0.000000000  0.250037230  0.125050081
     0.000000000  0.249997010  0.625050986
     0.000000000  0.500025242  0.125066930
     0.000000000  0.499975801  0.624960191
     0.000000000  0.749980158  0.124883871
     0.000000000  0.749955898  0.624919543
     0.166600620  0.000047088  0.124939101
     0.166564537  0.999977083  0.625008851
     0.166657570  0.250032647  0.125073758
     0.166592579  0.249888525  0.625090824
     0.166769182  0.500045314  0.125115382
     0.166837571  0.499919251  0.624985851
     0.166689705  0.750046039  0.124819472
     0.166711350  0.750006472  0.624880427
     0.333263724  0.000115809  0.124891738
     0.333223542  0.000013412  0.624998339
     0.333314302  0.249955720  0.125149147
     0.333154517  0.249482591  0.625274124
     0.333571580  0.500167834  0.125566142
     0.333482362  0.499676166  0.625057250
     0.333312289  0.750246555  0.124701539
     0.333409317  0.750249464  0.624695431
     0.500000000  0.000130502  0.124881996
     0.500000000  0.000031835  0.624991285
     0.500000000  0.249888138  0.125211157
     0.500000000  0.249400701  0.625333242
     0.500000000  0.500115595  0.125390047
     0.500000000  0.750600881  0.124257412
     0.500000000  0.750469171  0.624760507
     0.666736306  0.000115809  0.124891738
     0.666776488  0.000013412  0.624998339
     0.666685728  0.249955720  0.125149147
     0.666845513  0.249482591  0.625274124
     0.666428450  0.500167834  0.125566142
     0.666517668  0.499676166  0.625057250
     0.666687741  0.750246555  0.124701539
     0.666590713  0.750249464  0.624695431
     0.833399365  0.000047088  0.124939101
     0.833435448  0.999977083  0.625008851
     0.833342415  0.250032647  0.125073758
     0.833407406  0.249888525  0.625090824
     0.833230803  0.500045314  0.125115382
     0.833162414  0.499919251  0.624985851
     0.833310280  0.750046039  0.124819472
     0.833288635  0.750006472  0.624880427
     0.083312718  0.125024614  0.124975128
     0.083280348  0.124965511  0.625020903
     0.083378155  0.375043025  0.125145479
     0.083345745  0.374969940  0.625063152
     0.083373028  0.625005785  0.124922222
     0.083440735  0.624956562  0.624879570
     0.083314552  0.875009512  0.124904111
     0.083318474  0.874972312  0.624965267
     0.249940682  0.125021330  0.124979394
     0.249863311  0.124838479  0.625064165
     0.250137592  0.375070172  0.125375362
     0.249960122  0.374741357  0.625156486
     0.250076896  0.625081917  0.124829322
     0.250303236  0.624946823  0.624735312
     0.249951567  0.875120702  0.124829315
     0.249956408  0.875089597  0.624919134
     0.416626146  0.124991243  0.125024818
     0.416590834  0.124759641  0.625114728
     0.416715183  0.374982949  0.125349713
     0.416362956  0.373803602  0.625862010
     0.416722677  0.625305712  0.124849434
     0.417771433  0.624889978  0.623671841
     0.416613279  0.875320625  0.124669737
     0.416625593  0.875243494  0.624882120
     0.583373824  0.124991243  0.125024818
     0.583409136  0.124759641  0.625114728
     0.583284787  0.374982949  0.125349713
     0.583637014  0.373803602  0.625862010
     0.583277293  0.625305712  0.124849434
     0.582228537  0.624889978  0.623671841
     0.583386691  0.875320625  0.124669737
     0.583374377  0.875243494  0.624882120
     0.750059318  0.125021330  0.124979394
     0.750136689  0.124838479  0.625064165
     0.749862408  0.375070172  0.125375362
     0.750039878  0.374741357  0.625156486
     0.749923104  0.625081917  0.124829322
     0.749696764  0.624946823  0.624735312
     0.750048433  0.875120702  0.124829315
     0.750043592  0.875089597  0.624919134
     0.916687305  0.125024614  0.124975128
     0.916719675  0.124965511  0.625020903
     0.916621868  0.375043025  0.125145479
     0.916654278  0.374969940  0.625063152
     0.916626995  0.625005785  0.124922222
     0.916559288  0.624956562  0.624879570
     0.916685471  0.875009512  0.124904111
     0.916681549  0.874972312  0.624965267
     0.000000000  0.083335907  0.458312912
     0.000000000  0.083337925  0.958340342
     0.000000000  0.333359997  0.458365245
     0.000000000  0.333358082  0.958450406
     0.000000000  0.583308623  0.458293878
     0.000000000  0.583312417  0.958272645
     0.000000000  0.833314309  0.458276210
     0.000000000  0.833310330  0.958247557
     0.166518252  0.083294482  0.458318704
     0.166612260  0.083328598  0.958334638
     0.166644489  0.333276690  0.458404675
     0.166694702  0.333350734  0.958536422
     0.167146585  0.583316931  0.458228164
     0.166746478  0.583311060  0.958231157
     0.166617897  0.833430967  0.458215810
     0.166660184  0.833321920  0.958204785
     0.333201585  0.083254030  0.458330342
     0.333276800  0.083304206  0.958362848
     0.332923205  0.332332440  0.458558026
     0.333342872  0.333251024  0.958617668
     0.334754825  0.583401883  0.457682090
     0.333528323  0.583283968  0.958095228
     0.333106338  0.834036764  0.458093230
     0.333326817  0.833419222  0.958131660
     0.500000000  0.083240832  0.458345436
     0.500000000  0.083303516  0.958388868
     0.500000000  0.332001001  0.458581180
     0.500000000  0.333092976  0.958845970
     0.500000000  0.583304460  0.958177585
     0.500000000  0.834234058  0.458068923
     0.500000000  0.833512135  0.957999495
     0.666798445  0.083254030  0.458330342
     0.666723230  0.083304206  0.958362848
     0.667076825  0.332332440  0.458558026
     0.666657158  0.333251024  0.958617668
     0.665245205  0.583401883  0.457682090
     0.666471707  0.583283968  0.958095228
     0.666893692  0.834036764  0.458093230
     0.666673213  0.833419222  0.958131660
     0.833481733  0.083294482  0.458318704
     0.833387725  0.083328598  0.958334638
     0.833355496  0.333276690  0.458404675
     0.833305283  0.333350734  0.958536422
     0.832853400  0.583316931  0.458228164
     0.833253507  0.583311060  0.958231157
     0.833382088  0.833430967  0.458215810
     0.833339801  0.833321920  0.958204785
     0.083286075  0.208333575  0.458351755
     0.083321318  0.208346136  0.958399068
     0.083528167  0.458323208  0.458346261
     0.083368352  0.458345440  0.958425926
     0.083381110  0.708325907  0.458245840
     0.083363376  0.708295326  0.958182067
     0.083275558  0.958335967  0.458306639
     0.083315013  0.958327254  0.958306389
     0.249820908  0.208030211  0.458414533
     0.249965699  0.208301429  0.958462672
     0.250699921  0.458180211  0.458365353
     0.250102959  0.458341931  0.958589910
     0.250107850  0.708605281  0.458133677
     0.250104396  0.708313089  0.958059873
     0.249836174  0.958509972  0.458282876
     0.249951251  0.958353302  0.958293151
     0.416552872  0.207822974  0.458449891
     0.416639483  0.208191052  0.958572428
     0.416701641  0.458296836  0.958588944
     0.416102831  0.710622882  0.457554682
     0.416684905  0.708414687  0.958037155
     0.416584899  0.958623450  0.458229891
     0.416633819  0.958400273  0.958226820
     0.583447098  0.207822974  0.458449891
     0.583360487  0.208191052  0.958572428
     0.583298329  0.458296836  0.958588944
     0.583897139  0.710622882  0.457554682
     0.583315065  0.708414687  0.958037155
     0.583415071  0.958623450  0.458229891
     0.583366151  0.958400273  0.958226820
     0.750179092  0.208030211  0.458414533
     0.750034301  0.208301429  0.958462672
     0.749300079  0.458180211  0.458365353
     0.749897041  0.458341931  0.958589910
     0.749892150  0.708605281  0.458133677
     0.749895604  0.708313089  0.958059873
     0.750163826  0.958509972  0.458282876
     0.750048749  0.958353302  0.958293151
     0.916713948  0.208333575  0.458351755
     0.916678705  0.208346136  0.958399068
     0.916471856  0.458323208  0.458346261
     0.916631671  0.458345440  0.958425926
     0.916618913  0.708325907  0.458245840
     0.916636647  0.708295326  0.958182067
     0.916724465  0.958335967  0.458306639
     0.916685010  0.958327254  0.958306389
     0.000000000  0.166700903  0.291645639
     0.000000000  0.166664211  0.791722910
     0.000000000  0.416703420  0.291765125
     0.000000000  0.416670626  0.791741812
     0.000000000  0.666673046  0.291592654
     0.000000000  0.666618541  0.791531154
     0.000000000  0.916678577  0.291606416
     0.000000000  0.916640024  0.791654744
     0.166606732  0.166678852  0.291648106
     0.166601514  0.166606109  0.791748619
     0.166810096  0.416679324  0.291839318
     0.166710335  0.416605812  0.791801307
     0.166717383  0.666754135  0.291547847
     0.166789864  0.666602905  0.791464546
     0.166587671  0.916764757  0.291569411
     0.166636066  0.916644473  0.791642511
     0.333246759  0.166587043  0.291682745
     0.333242194  0.166460811  0.791847832
     0.333658908  0.416732111  0.292542972
     0.333329869  0.416417313  0.791942037
     0.333296823  0.667145629  0.291328748
     0.333666264  0.666541068  0.791084963
     0.333198552  0.917010534  0.291449494
     0.333288686  0.916705524  0.791599482
     0.500000000  0.166534649  0.291712308
     0.500000000  0.166419081  0.791876447
     0.500000000  0.416452670  0.292044074
     0.500000000  0.415869717  0.792777026
     0.500000000  0.668698596  0.289746801
     0.500000000  0.666659028  0.791375594
     0.500000000  0.917067772  0.291430167
     0.500000000  0.916755954  0.791555696
     0.666753271  0.166587043  0.291682745
     0.666757836  0.166460811  0.791847832
     0.666341122  0.416732111  0.292542972
     0.666670161  0.416417313  0.791942037
     0.666703207  0.667145629  0.291328748
     0.666333766  0.666541068  0.791084963
     0.666801478  0.917010534  0.291449494
     0.666711344  0.916705524  0.791599482
     0.833393253  0.166678852  0.291648106
     0.833398471  0.166606109  0.791748619
     0.833189889  0.416679324  0.291839318
     0.833289650  0.416605812  0.791801307
     0.833282602  0.666754135  0.291547847
     0.833210121  0.666602905  0.791464546
     0.833412314  0.916764757  0.291569411
     0.833363919  0.916644473  0.791642511
     0.083291555  0.041696633  0.291613019
     0.083306590  0.041639953  0.791686376
     0.083342002  0.291698178  0.291712625
     0.083335856  0.291659839  0.791775565
     0.083428084  0.541691447  0.291710532
     0.083404028  0.541627674  0.791607634
     0.083337557  0.791690521  0.291557505
     0.083352902  0.791632981  0.791574920
     0.249874939  0.041745413  0.291588893
     0.249914215  0.041611614  0.791709406
     0.249986105  0.291616288  0.291744381
     0.249954543  0.291513219  0.791848393
     0.250159903  0.541753442  0.291738680
     0.250144454  0.541550464  0.791548422
     0.249944421  0.791929652  0.291460307
     0.250040950  0.791666519  0.791498628
     0.416598072  0.041770618  0.291576385
     0.416610015  0.041600569  0.791722003
     0.416631785  0.291418285  0.291811946
     0.416592820  0.291203787  0.792173606
     0.416984549  0.542312642  0.293238895
     0.417071642  0.541343517  0.791059877
     0.416504777  0.792518678  0.291058601
     0.416668060  0.791770819  0.791468348
     0.583401898  0.041770618  0.291576385
     0.583389955  0.041600569  0.791722003
     0.583368185  0.291418285  0.291811946
     0.583407150  0.291203787  0.792173606
     0.583015421  0.542312642  0.293238895
     0.582928328  0.541343517  0.791059877
     0.583495193  0.792518678  0.291058601
     0.583331910  0.791770819  0.791468348
     0.750125061  0.041745413  0.291588893
     0.750085785  0.041611614  0.791709406
     0.750013895  0.291616288  0.291744381
     0.750045457  0.291513219  0.791848393
     0.749840097  0.541753442  0.291738680
     0.749855546  0.541550464  0.791548422
     0.750055579  0.791929652  0.291460307
     0.749959050  0.791666519  0.791498628
[...]
 196       0.002     0.001    -0.003       0.283
 197      -0.002    -0.001     0.003       0.234
 198      -0.004    -0.001     0.005       0.487
 199      -0.007    -0.002     0.009       0.534
 200      -0.003    -0.002     0.021       0.071
 201       0.009    -0.004    -0.009       1.439
 202      -0.011    -0.009     0.011       0.195
 203      -0.001    -0.000     0.004       0.217
 204       0.004    -0.002    -0.004       1.458
 205      -0.005    -0.001     0.006       0.645
 206      -0.003    -0.002     0.017       0.054
 207      -0.016     0.015    -0.020      -1.501
 208      -0.011     0.010     0.063       0.344
 209       0.020    -0.017    -0.020       1.829
 210      -0.021    -0.016     0.047       0.107
 211      -0.006    -0.003     0.006       0.477
 212      -0.004    -0.003     0.010       0.148
 213       0.005    -0.004     0.010      -0.922
 214       0.017     0.014     0.055      -0.053
 215       0.004    -0.002     0.066      -0.102
 216       0.902     0.863     1.571      -0.025
 217       0.348     0.344     0.599      -0.007
 218       0.064     0.043     0.177      -0.120
 219      -0.006    -0.001     0.011       0.484
 220      -0.008    -0.005     0.014       0.270
 221      -0.005    -0.001     0.006       0.645
 222      -0.003    -0.002     0.017       0.054
 223      -0.016     0.015    -0.020      -1.501
 224      -0.011     0.010     0.063       0.344
 225       0.020    -0.017    -0.020       1.829
 226      -0.021    -0.016     0.047       0.107
 227      -0.006    -0.003     0.006       0.477
 228      -0.004    -0.003     0.010       0.148
 229      -0.002    -0.001     0.003       0.234
 230      -0.004    -0.001     0.005       0.487
 231      -0.007    -0.002     0.009       0.534
 232      -0.003    -0.002     0.021       0.071
 233       0.009    -0.004    -0.009       1.439
 234      -0.011    -0.009     0.011       0.195
 235      -0.001    -0.000     0.004       0.217
 236       0.004    -0.002    -0.004       1.458
 237       0.002     0.000    -0.002       0.840
 238       0.002     0.000    -0.003       0.627
 239      -0.002    -0.001     0.004       0.402
 240      -0.004    -0.002     0.006       0.299
 241      -0.008    -0.001     0.008       0.759
 242      -0.006    -0.002     0.015       0.217
 243      -0.003    -0.001     0.004       0.371
 244      -0.004    -0.003     0.005       0.328
 245      -0.003    -0.002     0.004       0.382
 246      -0.003    -0.001     0.006       0.225
 247      -0.004    -0.001     0.009       0.355
 248      -0.007    -0.006     0.014       0.096
 249      -0.011    -0.006     0.019       0.287
 250       0.009     0.006     0.064      -0.039
 251      -0.003    -0.001     0.012       0.176
 252      -0.010     0.007    -0.012      -1.440
 253      -0.005    -0.001     0.006       0.657
 254      -0.004    -0.001     0.014       0.160
 255      -0.004     0.003     0.024       0.289
 256       0.007     0.003     0.080      -0.041
 257      -0.015    -0.011     0.056       0.063
 258       0.365     0.355     0.600      -0.016
 259      -0.016     0.009    -0.020      -1.213
 260       0.020    -0.016    -0.022       1.683
 261      -0.005    -0.001     0.006       0.657
 262      -0.004    -0.001     0.014       0.160
 263      -0.004     0.003     0.024       0.289
 264       0.007     0.003     0.080      -0.041
 265      -0.015    -0.011     0.056       0.063
 266       0.365     0.355     0.600      -0.016
 267      -0.016     0.009    -0.020      -1.213
 268       0.020    -0.016    -0.022       1.683
 269      -0.003    -0.002     0.004       0.382
 270      -0.003    -0.001     0.006       0.225
 271      -0.004    -0.001     0.009       0.355
 272      -0.007    -0.006     0.014       0.096
 273      -0.011    -0.006     0.019       0.287
 274       0.009     0.006     0.064      -0.039
 275      -0.003    -0.001     0.012       0.176
 276      -0.010     0.007    -0.012      -1.440
 277       0.002     0.000    -0.002       0.840
 278       0.002     0.000    -0.003       0.627
 279      -0.002    -0.001     0.004       0.402
 280      -0.004    -0.002     0.006       0.299
 281      -0.008    -0.001     0.008       0.759
 282      -0.006    -0.002     0.015       0.217
 283      -0.003    -0.001     0.004       0.371
 284      -0.004    -0.003     0.005       0.328
 285       0.001     0.000    -0.002       0.536
 286       0.002     0.001    -0.003       0.336
 287      -0.002    -0.000     0.002       0.559
 288      -0.004    -0.000     0.005       0.689
 289      -0.006     0.000     0.007       0.907
 290      -0.008    -0.005     0.012       0.271
 291      -0.003    -0.000     0.005       0.514
 292      -0.004    -0.002     0.007       0.270
 293      -0.002    -0.001     0.002       0.441
 294      -0.003     0.000     0.005       0.602
 295      -0.003    -0.002     0.003       0.446
 296      -0.006    -0.004     0.007       0.208
 297      -0.006     0.002     0.012       0.595
 298      -0.012    -0.009     0.020       0.152
 299      -0.003    -0.001     0.006       0.360
 300      -0.006    -0.005     0.012       0.079
 301      -0.003    -0.000     0.007       0.409
 302      -0.005    -0.004     0.007       0.106
 303      -0.006    -0.001     0.008       0.609
 304      -0.017     0.010    -0.019      -1.430
 305      -0.018     0.015    -0.022      -1.510
 306       0.050     0.034     0.166      -0.094
 307      -0.007    -0.005     0.014       0.152
 308      -0.004     0.001     0.046       0.100
 309       0.003    -0.002     0.014      -0.346
 310      -0.006    -0.003     0.010       0.240
 311       0.014     0.006     0.028      -0.309
 312       0.016     0.013     0.063      -0.045
 313       0.015     0.006     0.068      -0.131
 314       0.074     0.063     0.165      -0.069
 315      -0.017     0.010     0.063       0.424
 316      -0.003    -0.000     0.007       0.409
 317      -0.005    -0.004     0.007       0.106
 318      -0.006    -0.001     0.008       0.609
 319      -0.017     0.010    -0.019      -1.430
 320      -0.018     0.015    -0.022      -1.510
 321       0.050     0.034     0.166      -0.094
 322      -0.007    -0.005     0.014       0.152
 323      -0.004     0.001     0.046       0.100
 324      -0.002    -0.001     0.002       0.441
 325      -0.003     0.000     0.005       0.602
 326      -0.003    -0.002     0.003       0.446
 327      -0.006    -0.004     0.007       0.208
 328      -0.006     0.002     0.012       0.595
 329      -0.012    -0.009     0.020       0.152
 330      -0.003    -0.001     0.006       0.360
 331      -0.006    -0.005     0.012       0.079
 332       0.001    -0.000    -0.002       0.888
 333       0.003     0.000    -0.003       0.668
 334      -0.004    -0.000     0.005       0.808
 335      -0.005    -0.004     0.011       0.116
 336      -0.005     0.001     0.008       0.677
 337      -0.007    -0.005     0.013       0.167
 338      -0.002    -0.000     0.002       0.557
 339      -0.003    -0.000     0.004       0.785
 340      -0.003    -0.001     0.004       0.431
 341      -0.005    -0.004     0.005       0.215
 342      -0.005     0.000     0.013       0.394
 343      -0.018    -0.017     0.021       0.045
 344       0.004    -0.002     0.021      -0.286
 345       0.017     0.010     0.062      -0.106
 346      -0.003    -0.002     0.005       0.320
 347       0.001    -0.001     0.015      -0.140
 348      -0.005    -0.001     0.006       0.776
 349      -0.007    -0.006     0.011       0.134
 350      -0.014    -0.009     0.019       0.273
 351      -0.044    -0.034     0.079       0.119
 352       0.004    -0.000     0.054      -0.083
 353       0.355     0.348     0.596      -0.013
 354      -0.005     0.001     0.016       0.339
 355      -0.010    -0.006     0.015       0.271
 356      -0.005    -0.001     0.006       0.776
 357      -0.007    -0.006     0.011       0.134
 358      -0.014    -0.009     0.019       0.273
 359      -0.044    -0.034     0.079       0.119
 360       0.004    -0.000     0.054      -0.083
 361       0.355     0.348     0.596      -0.013
 362      -0.005     0.001     0.016       0.339
 363      -0.010    -0.006     0.015       0.271
 364      -0.003    -0.001     0.004       0.431
 365      -0.005    -0.004     0.005       0.215
 366      -0.005     0.000     0.013       0.394
 367      -0.018    -0.017     0.021       0.045
 368       0.004    -0.002     0.021      -0.286
 369       0.017     0.010     0.062      -0.106
 370      -0.003    -0.002     0.005       0.320
 371       0.001    -0.001     0.015      -0.140
 372       0.001    -0.000    -0.002       0.888
 373       0.003     0.000    -0.003       0.668
 374      -0.004    -0.000     0.005       0.808
 375      -0.005    -0.004     0.011       0.116
 376      -0.005     0.001     0.008       0.677
 377      -0.007    -0.005     0.013       0.167
 378      -0.002    -0.000     0.002       0.557
 379      -0.003    -0.000     0.004       0.785
 380       0.002     0.001    -0.004       0.237
 381       0.001     0.000    -0.001       0.676
 382      -0.006    -0.004     0.007       0.273
 383       0.003    -0.000    -0.003       0.902
 384      -0.010    -0.008     0.012       0.122
 385       0.005     0.001    -0.006       0.685
 386      -0.002     0.002     0.007       0.670
 387      -0.001    -0.000     0.002       0.206
 388       0.022     0.016     0.025      -0.226
 389      -0.001    -0.001     0.002       0.062
 390      -0.011     0.009    -0.013      -1.470
 391      -0.004     0.002     0.004       1.561
 392      -0.019     0.017    -0.020      -1.771
 393       0.005     0.003    -0.007       0.245
 394       0.002    -0.001     0.015      -0.217
 395       0.002     0.001    -0.002       0.601
 396      -0.007    -0.006     0.008       0.137
 397      -0.004    -0.000     0.004       0.859
 398       0.371     0.369     0.607      -0.004
 399      -0.008    -0.001     0.008       0.840
 400       0.356     0.346     0.590      -0.017
 401      -0.013    -0.008     0.016       0.333
 402       0.081     0.076     0.171      -0.029
 403       0.003     0.001    -0.005       0.383
 404      -0.003    -0.002     0.016       0.076
 405      -0.003     0.002     0.007       0.759
 406      -0.058    -0.042     0.069       0.221
 407       0.058     0.051     0.105      -0.068
 408      -0.017    -0.015     0.024       0.105
 409       0.009     0.007     0.082      -0.019
 410       0.011    -0.000     0.025      -0.448
 411      -0.007    -0.006     0.008       0.137
 412      -0.004    -0.000     0.004       0.859
 413       0.371     0.369     0.607      -0.004
 414      -0.008    -0.001     0.008       0.840
 415       0.356     0.346     0.590      -0.017
 416      -0.013    -0.008     0.016       0.333
 417       0.081     0.076     0.171      -0.029
 418       0.003     0.001    -0.005       0.383
 419       0.022     0.016     0.025      -0.226
 420      -0.001    -0.001     0.002       0.062
 421      -0.011     0.009    -0.013      -1.470
 422      -0.004     0.002     0.004       1.561
 423      -0.019     0.017    -0.020      -1.771
 424       0.005     0.003    -0.007       0.245
 425       0.002    -0.001     0.015      -0.217
 426       0.002     0.001    -0.002       0.601
 427       0.004    -0.001    -0.005       0.979
 428      -0.001    -0.001     0.001       0.128
 429      -0.004    -0.003     0.019       0.054
 430       0.004     0.001    -0.006       0.463
 431      -0.001    -0.000     0.017       0.070
 432       0.004     0.001    -0.004       0.631
 433       0.003     0.001    -0.004       0.509
 434      -0.001    -0.000     0.001       0.856
 435       0.052     0.049     0.092      -0.034
 436      -0.002     0.002     0.004       0.930
 437      -0.014    -0.011     0.052       0.065
 438       0.008    -0.001    -0.009       0.974
 439      -0.007    -0.002     0.044       0.112
 440       0.005    -0.000    -0.007       0.754
 441       0.009     0.007     0.027      -0.062
 442      -0.002    -0.000     0.003       0.811
 443      -0.020     0.010    -0.021      -1.424
 444       0.002    -0.000    -0.008       0.329
 445       0.016    -0.015    -0.017       1.850
 446       0.911     0.874     1.566      -0.024
 447       0.008     0.001     0.028      -0.228
 448      -0.003    -0.002     0.019       0.057
 449      -0.005     0.001     0.005       1.173
 450      -0.020     0.010    -0.021      -1.424
 451       0.002    -0.000    -0.008       0.329
 452       0.016    -0.015    -0.017       1.850
 453       0.911     0.874     1.566      -0.024
 454       0.008     0.001     0.028      -0.228
 455      -0.003    -0.002     0.019       0.057
 456      -0.005     0.001     0.005       1.173
 457       0.052     0.049     0.092      -0.034
 458      -0.002     0.002     0.004       0.930
 459      -0.014    -0.011     0.052       0.065
 460       0.008    -0.001    -0.009       0.974
 461      -0.007    -0.002     0.044       0.112
 462       0.005    -0.000    -0.007       0.754
 463       0.009     0.007     0.027      -0.062
 464      -0.002    -0.000     0.003       0.811
 465       0.004    -0.001    -0.005       0.979
 466      -0.001    -0.001     0.001       0.128
 467      -0.004    -0.003     0.019       0.054
 468       0.004     0.001    -0.006       0.463
 469      -0.001    -0.000     0.017       0.070
 470       0.004     0.001    -0.004       0.631
 471       0.003     0.001    -0.004       0.509
 472      -0.001    -0.000     0.001       0.856
 473       0.002     0.001    -0.003       0.283
 474       0.001     0.001    -0.002       0.294
 475      -0.006    -0.003     0.009       0.295
 476      -0.006    -0.001     0.006       0.760
 477      -0.006    -0.003     0.009       0.264
 478      -0.004     0.001     0.007       0.625
 479       0.002     0.001    -0.003       0.330
 480       0.001     0.001    -0.002       0.248
 481       0.004    -0.002    -0.004       1.458
 482      -0.001    -0.000     0.004       0.217
 483      -0.011    -0.009     0.011       0.195
 484       0.009    -0.004    -0.009       1.439
 485      -0.003    -0.002     0.021       0.071
 486      -0.007    -0.002     0.009       0.534
 487      -0.004    -0.001     0.005       0.488
 488      -0.002    -0.001     0.003       0.234
 489      -0.004    -0.003     0.010       0.148
 490      -0.006    -0.003     0.006       0.477
 491      -0.021    -0.016     0.047       0.107
 492       0.020    -0.017    -0.020       1.829
 493      -0.011     0.010     0.063       0.344
 494      -0.016     0.015    -0.020      -1.501
 495      -0.003    -0.002     0.017       0.054
 496      -0.005    -0.001     0.006       0.645
 497      -0.008    -0.005     0.014       0.270
 498      -0.006    -0.001     0.011       0.484
 499       0.064     0.043     0.177      -0.120
 500       0.348     0.344     0.599      -0.007
 501       0.902     0.863     1.571      -0.025
 502       0.004    -0.002     0.066      -0.102
 503       0.017     0.014     0.055      -0.053
 504       0.005    -0.004     0.010      -0.922
 505      -0.004    -0.003     0.010       0.148
 506      -0.006    -0.003     0.006       0.477
 507      -0.021    -0.016     0.047       0.107
 508       0.020    -0.017    -0.020       1.829
 509      -0.011     0.010     0.063       0.344
 510      -0.016     0.015    -0.020      -1.501
 511      -0.003    -0.002     0.017       0.054
 512      -0.005    -0.001     0.006       0.645
 513       0.004    -0.002    -0.004       1.458
 514      -0.001    -0.000     0.004       0.217
 515      -0.011    -0.009     0.011       0.195
 516       0.009    -0.004    -0.009       1.439
 517      -0.003    -0.002     0.021       0.071
 518      -0.007    -0.002     0.009       0.534
 519      -0.004    -0.001     0.005       0.488
 520      -0.002    -0.001     0.003       0.234
 521       0.002     0.000    -0.003       0.627
 522       0.002     0.000    -0.002       0.839
 523      -0.004    -0.003     0.005       0.328
 524      -0.003    -0.001     0.004       0.371
 525      -0.006    -0.002     0.015       0.217
 526      -0.008    -0.001     0.008       0.759
 527      -0.004    -0.002     0.006       0.299
 528      -0.002    -0.001     0.004       0.402
 529      -0.003    -0.001     0.006       0.225
 530      -0.003    -0.002     0.004       0.382
 531      -0.010     0.007    -0.012      -1.440
 532      -0.003    -0.001     0.012       0.176
 533       0.009     0.006     0.064      -0.039
 534      -0.011    -0.006     0.019       0.287
 535      -0.007    -0.006     0.014       0.096
 536      -0.004    -0.001     0.009       0.355
 537      -0.004    -0.001     0.014       0.160
 538      -0.005    -0.001     0.006       0.657
 539       0.020    -0.016    -0.022       1.683
 540      -0.016     0.009    -0.020      -1.213
 541       0.365     0.355     0.600      -0.016
 542      -0.015    -0.011     0.056       0.063
 543       0.007     0.003     0.080      -0.041
 544      -0.004     0.003     0.024       0.289
 545      -0.004    -0.001     0.014       0.160
 546      -0.005    -0.001     0.006       0.657
 547       0.020    -0.016    -0.022       1.683
 548      -0.016     0.009    -0.020      -1.213
 549       0.365     0.355     0.600      -0.016
 550      -0.015    -0.011     0.056       0.063
 551       0.007     0.003     0.080      -0.041
 552      -0.004     0.003     0.024       0.289
 553      -0.003    -0.001     0.006       0.225
 554      -0.003    -0.002     0.004       0.382
 555      -0.010     0.007    -0.012      -1.440
 556      -0.003    -0.001     0.012       0.176
 557       0.009     0.006     0.064      -0.039
 558      -0.011    -0.006     0.019       0.287
 559      -0.007    -0.006     0.014       0.096
 560      -0.004    -0.001     0.009       0.355
 561       0.002     0.000    -0.003       0.627
 562       0.002     0.000    -0.002       0.839
 563      -0.004    -0.003     0.005       0.328
 564      -0.003    -0.001     0.004       0.371
 565      -0.006    -0.002     0.015       0.217
 566      -0.008    -0.001     0.008       0.759
 567      -0.004    -0.002     0.006       0.299
 568      -0.002    -0.001     0.004       0.402
 569      24.760    24.760    48.338      -0.000
 570      24.760    24.760    48.338      -0.000
 571      -1.000    -0.653    -1.136      -0.306
 572      -1.000    -0.653    -1.136      -0.306
 573      -1.009    -0.655    -1.146      -0.309
 574      -1.009    -0.655    -1.146      -0.309
 575      -1.000    -0.653    -1.136      -0.306
 576      -1.000    -0.653    -1.136      -0.306
 ---------------------------------------------------------------------



--------------------------------------------------------------------------------------------------------


     LOOP+:  cpu time  729.2027: real time  731.3601
    4ORBIT:  cpu time    0.0000: real time    0.0000

 total amount of memory used by VASP MPI-rank0   135651. kBytes
=======================================================================

   base      :      30000. kBytes
   nonlr-proj:       4919. kBytes
   fftplans  :       8132. kBytes
   grid      :      24015. kBytes
   one-center:        147. kBytes
   wavefun   :      68438. kBytes
 
  
  
 General timing and accounting informations for this job:
 ========================================================
  
                  Total CPU time used (sec):      749.990
                            User time (sec):      747.547
                          System time (sec):        2.443
                         Elapsed time (sec):      752.799
  
                   Maximum memory used (kb):      306092.
                   Average memory used (kb):          N/A
  
                          Minor page faults:       278539
                          Major page faults:            0
                 Voluntary context switches:         6343
