 vasp.6.2.0 18Jan21 (build Apr 30 2021 19:00:08) gamma-only                     
  
 executed on             LinuxIFC date 2022.11.10  11:47:41
 running on   48 total cores
 distrk:  each k-point on   48 cores,    1 groups
 distr:  one band on NCORE=  12 cores,    4 groups


--------------------------------------------------------------------------------------------------------


 INCAR:
   SYSTEM = Diamond
   PREC = Normal
   ISTART = 0
   ICHARG = 11
   ISPIN = 2
   MAGMOM = 568*0.0 2*1.0 6*1.0
   NPAR = 4
   NELECT = 2305
   LHYPERFINE = T
   LEFG = T
   ENCUT = 700
   NELM = 1000
   NELMIN = 4
   EDIFF = 1E-06
   LREAL = Auto
   ALGO = Normal
   EDIFFG = -1E-02
   NSW = 0
   IBRION = 2
   ISIF = 2
   ISYM = 2
   POTIM = 0.5
   ISMEAR = 0
   SIGMA = 0.05
   NEDOS = 1000
   LWAVE = F
   LCHARG = F
   LVHAR = F
   LELF = F

 POTCAR:    PAW_PBE C 08Apr2002                   
 POTCAR:    PAW_PBE N 08Apr2002                   
 POTCAR:    PAW_PBE C 08Apr2002                   
 POTCAR:    PAW_PBE C 08Apr2002                   
   VRHFIN =C: s2p2                                                                                  
   LEXCH  = PE                                                                                      
   EATOM  =   147.1560 eV,   10.8157 Ry                                                             
                                                                                                    
   TITEL  = PAW_PBE C 08Apr2002                                                                     
   LULTRA =        F    use ultrasoft PP ?                                                          
   IUNSCR =        1    unscreen: 0-lin 1-nonlin 2-no                                               
   RPACOR =    1.200    partial core radius                                                         
   POMASS =   12.011; ZVAL   =    4.000    mass and valenz                                          
   RCORE  =    1.500    outmost cutoff radius                                                       
   RWIGS  =    1.630; RWIGS  =    0.863    wigner-seitz radius (au A)                               
   ENMAX  =  400.000; ENMIN  =  300.000 eV                                                          
   ICORE  =        2    local potential                                                             
   LCOR   =        T    correct aug charges                                                         
   LPAW   =        T    paw PP                                                                      
   EAUG   =  644.873                                                                                
   DEXC   =    0.000                                                                                
   RMAX   =    1.529    core radius for proj-oper                                                   
   RAUG   =    1.300    factor for augmentation sphere                                              
   RDEP   =    1.501    radius for radial grids                                                     
   RDEPT  =    1.300    core radius for aug-charge                                                  
                                                                                                    
   Atomic configuration                                                                             
    4 entries                                                                                       
     n  l   j            E        occ.                                                              
     1  0  0.50      -273.3789   2.0000                                                             
     2  0  0.50       -13.7508   2.0000                                                             
     2  1  0.50        -5.2854   2.0000                                                             
     3  2  1.50        -5.4423   0.0000                                                             
   Description                                                                                      
     l       E           TYP  RCUT    TYP  RCUT                                                     
     0    -13.7508458     23  1.200                                                                 
     0     -8.2022199     23  1.200                                                                 
     1     -5.2854383     23  1.500                                                                 
     1     34.0145650     23  1.500                                                                 
     2     -5.4423304      7  1.500                                                                 
  local pseudopotential read in
  partial core-charges read in
  partial kinetic energy density read in
  atomic valenz-charges read in
  non local Contribution for L=           0  read in
    real space projection operators read in
  non local Contribution for L=           0  read in
    real space projection operators read in
  non local Contribution for L=           1  read in
    real space projection operators read in
  non local Contribution for L=           1  read in
    real space projection operators read in
    PAW grid and wavefunctions read in
 
   number of l-projection  operators is LMAX  =           4
   number of lm-projection operators is LMMAX =           8
 
 POTCAR:    PAW_PBE N 08Apr2002                   
   VRHFIN =N: s2p3                                                                                  
   LEXCH  = PE                                                                                      
   EATOM  =   264.5486 eV,   19.4438 Ry                                                             
                                                                                                    
   TITEL  = PAW_PBE N 08Apr2002                                                                     
   LULTRA =        F    use ultrasoft PP ?                                                          
   IUNSCR =        1    unscreen: 0-lin 1-nonlin 2-no                                               
   RPACOR =    1.200    partial core radius                                                         
   POMASS =   14.001; ZVAL   =    5.000    mass and valenz                                          
   RCORE  =    1.500    outmost cutoff radius                                                       
   RWIGS  =    1.400; RWIGS  =    0.741    wigner-seitz radius (au A)                               
   ENMAX  =  400.000; ENMIN  =  300.000 eV                                                          
   ICORE  =        2    local potential                                                             
   LCOR   =        T    correct aug charges                                                         
   LPAW   =        T    paw PP                                                                      
   EAUG   =  627.112                                                                                
   DEXC   =    0.000                                                                                
   RMAX   =    1.529    core radius for proj-oper                                                   
   RAUG   =    1.300    factor for augmentation sphere                                              
   RDEP   =    1.514    radius for radial grids                                                     
   RDEPT  =    1.338    core radius for aug-charge                                                  
                                                                                                    
   Atomic configuration                                                                             
    4 entries                                                                                       
     n  l   j            E        occ.                                                              
     1  0  0.50      -384.7179   2.0000                                                             
     2  0  0.50       -18.5828   2.0000                                                             
     2  1  0.50        -7.0898   3.0000                                                             
     3  2  1.50        -6.8029   0.0000                                                             
   Description                                                                                      
     l       E           TYP  RCUT    TYP  RCUT                                                     
     0    -18.5828119     23  1.200                                                                 
     0    -13.5018863     23  1.200                                                                 
     1     -7.0897853     23  1.500                                                                 
     1      9.5240782     23  1.500                                                                 
     2     -6.8029130      7  1.500                                                                 
  local pseudopotential read in
  partial core-charges read in
  partial kinetic energy density read in
  atomic valenz-charges read in
  non local Contribution for L=           0  read in
    real space projection operators read in
  non local Contribution for L=           0  read in
    real space projection operators read in
  non local Contribution for L=           1  read in
    real space projection operators read in
  non local Contribution for L=           1  read in
    real space projection operators read in
    PAW grid and wavefunctions read in
 
   number of l-projection  operators is LMAX  =           4
   number of lm-projection operators is LMMAX =           8
 
 POTCAR:    PAW_PBE C 08Apr2002                   
   VRHFIN =C: s2p2                                                                                  
   LEXCH  = PE                                                                                      
   EATOM  =   147.1560 eV,   10.8157 Ry                                                             
                                                                                                    
   TITEL  = PAW_PBE C 08Apr2002                                                                     
   LULTRA =        F    use ultrasoft PP ?                                                          
   IUNSCR =        1    unscreen: 0-lin 1-nonlin 2-no                                               
   RPACOR =    1.200    partial core radius                                                         
   POMASS =   12.011; ZVAL   =    4.000    mass and valenz                                          
   RCORE  =    1.500    outmost cutoff radius                                                       
   RWIGS  =    1.630; RWIGS  =    0.863    wigner-seitz radius (au A)                               
   ENMAX  =  400.000; ENMIN  =  300.000 eV                                                          
   ICORE  =        2    local potential                                                             
   LCOR   =        T    correct aug charges                                                         
   LPAW   =        T    paw PP                                                                      
   EAUG   =  644.873                                                                                
   DEXC   =    0.000                                                                                
   RMAX   =    1.529    core radius for proj-oper                                                   
   RAUG   =    1.300    factor for augmentation sphere                                              
   RDEP   =    1.501    radius for radial grids                                                     
   RDEPT  =    1.300    core radius for aug-charge                                                  
                                                                                                    
   Atomic configuration                                                                             
    4 entries                                                                                       
     n  l   j            E        occ.                                                              
     1  0  0.50      -273.3789   2.0000                                                             
     2  0  0.50       -13.7508   2.0000                                                             
     2  1  0.50        -5.2854   2.0000                                                             
     3  2  1.50        -5.4423   0.0000                                                             
   Description                                                                                      
     l       E           TYP  RCUT    TYP  RCUT                                                     
     0    -13.7508458     23  1.200                                                                 
     0     -8.2022199     23  1.200                                                                 
     1     -5.2854383     23  1.500                                                                 
     1     34.0145650     23  1.500                                                                 
     2     -5.4423304      7  1.500                                                                 
  local pseudopotential read in
  partial core-charges read in
  partial kinetic energy density read in
  atomic valenz-charges read in
  non local Contribution for L=           0  read in
    real space projection operators read in
  non local Contribution for L=           0  read in
    real space projection operators read in
  non local Contribution for L=           1  read in
    real space projection operators read in
  non local Contribution for L=           1  read in
    real space projection operators read in
    PAW grid and wavefunctions read in
 
   number of l-projection  operators is LMAX  =           4
   number of lm-projection operators is LMMAX =           8
 
 Optimization of the real space projectors (new method)

 maximal supplied QI-value         = 25.13
 optimisation between [QCUT,QGAM] = [ 13.32, 26.89] = [ 49.69,202.52] Ry 
 Optimized for a Real-space Cutoff    1.01 Angstroem

   l    n(q)    QCUT    max X(q) W(low)/X(q) W(high)/X(q)  e(spline) 
   0      8    13.321   115.676    0.29E-03    0.42E-03    0.11E-06
   0      8    13.321    87.132    0.29E-03    0.42E-03    0.11E-06
   1      8    13.321     4.429    0.39E-03    0.33E-03    0.98E-07
   1      8    13.321     2.733    0.30E-03    0.26E-03    0.97E-07
 Optimization of the real space projectors (new method)

 maximal supplied QI-value         = 25.13
 optimisation between [QCUT,QGAM] = [ 13.32, 26.89] = [ 49.69,202.52] Ry 
 Optimized for a Real-space Cutoff    1.01 Angstroem

   l    n(q)    QCUT    max X(q) W(low)/X(q) W(high)/X(q)  e(spline) 
   0      8    13.321    79.467    0.28E-03    0.38E-03    0.11E-06
   0      8    13.321    66.151    0.27E-03    0.38E-03    0.11E-06
   1      8    13.321    23.070    0.40E-03    0.78E-03    0.29E-06
   1      8    13.321    16.668    0.40E-03    0.79E-03    0.30E-06
 Optimization of the real space projectors (new method)

 maximal supplied QI-value         = 25.13
 optimisation between [QCUT,QGAM] = [ 13.32, 26.89] = [ 49.69,202.52] Ry 
 Optimized for a Real-space Cutoff    1.01 Angstroem

   l    n(q)    QCUT    max X(q) W(low)/X(q) W(high)/X(q)  e(spline) 
   0      8    13.321   115.676    0.29E-03    0.42E-03    0.11E-06
   0      8    13.321    87.132    0.29E-03    0.42E-03    0.11E-06
   1      8    13.321     4.429    0.39E-03    0.33E-03    0.98E-07
   1      8    13.321     2.733    0.30E-03    0.26E-03    0.97E-07
  PAW_PBE C 08Apr2002                   :
 energy of atom  1       EATOM= -147.1560
 kinetic energy error for atom=    0.0032 (will be added to EATOM!!)
  PAW_PBE N 08Apr2002                   :
 energy of atom  2       EATOM= -264.5486
 kinetic energy error for atom=    0.0061 (will be added to EATOM!!)
  PAW_PBE C 08Apr2002                   :
 energy of atom  3       EATOM= -147.1560
 kinetic energy error for atom=    0.0032 (will be added to EATOM!!)
 
 
 POSCAR: Autosave
  positions in direct lattice
  velocities in cartesian coordinates
 exchange correlation table for  LEXCH =        8
   RHO(1)=    0.500       N(1)  =     2000
   RHO(2)=  100.500       N(2)  =     4000
 


--------------------------------------------------------------------------------------------------------


 ion  position               nearest neighbor table
   1  0.000  1.000  0.000- 434 1.54 285 1.54 381 1.54 472 1.54
   2  0.000  1.000  0.500- 433 1.54 380 1.54 286 1.54 471 1.55
   3  0.000  0.250  1.000- 428 1.54 287 1.54 383 1.54 466 1.55
   4  0.000  0.250  0.500- 427 1.54 382 1.54 288 1.54 465 1.54
   5  1.000  0.500  1.000- 289 1.54 430 1.54 385 1.54 468 1.54
   6  0.000  0.500  0.500- 467 1.54 429 1.54 290 1.54 384 1.55
   7  1.000  0.750  0.000- 432 1.54 291 1.54 387 1.54 470 1.55
   8  1.000  0.750  0.500- 431 1.54 386 1.54 292 1.54 469 1.55
   9  0.167  0.000  0.000- 442 1.54 293 1.54 389 1.54 434 1.54
  10  0.167  0.000  0.500- 441 1.54 294 1.54 388 1.54 433 1.55
  11  0.167  0.250  0.000- 436 1.54 295 1.54 391 1.54 428 1.55
  12  0.167  0.250  0.500- 435 1.54 390 1.54 296 1.54 427 1.55
  13  0.167  0.500  0.000- 297 1.54 438 1.54 430 1.54 393 1.54
  14  0.166  0.500  0.500- 437 1.54 429 1.54 298 1.54 392 1.55
  15  0.167  0.750  0.000- 440 1.54 299 1.54 395 1.54 432 1.55
  16  0.166  0.750  0.500- 439 1.54 394 1.54 300 1.54 431 1.54
  17  0.333  0.000  0.000- 301 1.54 449 1.54 442 1.54 397 1.54
  18  0.333  0.000  0.500- 302 1.54 448 1.54 441 1.55 396 1.55
  19  0.333  0.250  0.000- 444 1.54 399 1.54 303 1.54 436 1.55
  20  0.334  0.250  0.500- 304 1.54 443 1.54 435 1.55 398 1.55
  21  0.333  0.500  0.000- 438 1.54 401 1.54 305 1.55 445 1.55
  22  0.331  0.501  0.501- 437 1.53 576 1.53 306 1.55 400 1.55
  23  0.333  0.750  0.000- 307 1.54 447 1.54 440 1.54 403 1.54
  24  0.333  0.751  0.500- 446 1.54 402 1.54 308 1.54 439 1.54
  25  0.500  0.000  1.000- 449 1.54 309 1.54 456 1.54 405 1.55
  26  0.500  0.000  0.500- 448 1.54 310 1.54 455 1.54 404 1.55
  27  0.500  0.250  1.000- 444 1.54 451 1.54 311 1.55 407 1.55
  28  0.501  0.250  0.500- 312 1.54 450 1.55 443 1.55 406 1.56
  29  0.500  0.500  0.000- 445 1.54 408 1.54 452 1.55 313 1.55
  30  0.500  0.750  0.000- 447 1.54 454 1.54 314 1.55 410 1.55
  31  0.500  0.750  0.500- 446 1.54 315 1.54 409 1.55 453 1.55
  32  0.667  1.000  1.000- 456 1.54 316 1.54 464 1.54 412 1.55
  33  0.667  1.000  0.500- 317 1.54 455 1.54 463 1.54 411 1.54
  34  0.667  0.250  1.000- 451 1.54 318 1.54 458 1.54 414 1.54
  35  0.667  0.249  0.500- 413 1.53 457 1.54 319 1.54 450 1.54
  36  0.667  0.500  1.000- 416 1.54 452 1.54 460 1.55 320 1.55
  37  0.667  0.750  0.000- 454 1.54 462 1.54 322 1.54 418 1.55
  38  0.666  0.750  0.500- 323 1.54 461 1.54 453 1.55 417 1.55
  39  0.833  1.000  1.000- 472 1.54 324 1.54 464 1.54 420 1.54
  40  0.833  1.000  0.500- 471 1.54 419 1.54 325 1.54 463 1.55
  41  0.834  0.250  1.000- 466 1.54 326 1.54 458 1.54 422 1.54
  42  0.834  0.250  0.500- 465 1.54 421 1.54 327 1.54 457 1.54
  43  0.833  0.500  1.000- 328 1.54 468 1.54 424 1.54 460 1.54
  44  0.834  0.500  0.500- 459 1.53 467 1.54 329 1.54 423 1.54
  45  0.833  0.750  1.000- 470 1.54 330 1.54 426 1.54 462 1.55
  46  0.833  0.750  0.500- 331 1.54 469 1.54 425 1.55 461 1.55
  47  0.083  0.125  1.000- 389 1.54 332 1.54 428 1.54 381 1.55
  48  0.083  0.125  0.500- 388 1.54 427 1.54 333 1.54 380 1.55
  49  0.083  0.375  0.000- 391 1.54 334 1.54 430 1.54 383 1.55
  50  0.083  0.375  0.500- 382 1.54 390 1.54 335 1.54 429 1.55
  51  0.083  0.625  0.000- 393 1.54 336 1.54 432 1.54 385 1.55
  52  0.083  0.625  0.500- 392 1.54 384 1.54 431 1.54 337 1.54
  53  0.083  0.875  0.000- 395 1.54 338 1.54 434 1.54 387 1.55
  54  0.083  0.875  0.500- 394 1.54 433 1.54 339 1.54 386 1.55
  55  0.250  0.125  0.000- 397 1.54 340 1.54 436 1.54 389 1.54
  56  0.250  0.125  0.500- 341 1.54 396 1.54 435 1.55 388 1.55
  57  0.250  0.375  0.000- 399 1.54 438 1.54 342 1.55 391 1.55
  58  0.250  0.375  0.500- 343 1.54 437 1.54 390 1.54 398 1.55
  59  0.250  0.625  0.000- 401 1.54 344 1.54 440 1.54 393 1.54
  60  0.249  0.626  0.500- 400 1.54 392 1.54 439 1.54 345 1.55
  61  0.250  0.875  0.000- 346 1.54 403 1.54 442 1.54 395 1.55
  62  0.250  0.875  0.500- 402 1.54 441 1.54 347 1.54 394 1.55
  63  0.417  0.125  1.000- 405 1.54 348 1.54 397 1.54 444 1.55
  64  0.417  0.125  0.500- 349 1.54 404 1.54 396 1.55 443 1.55
  65  0.417  0.375  0.000- 445 1.54 407 1.54 399 1.55 350 1.55
  66  0.417  0.376  0.501- 351 1.54 576 1.55 406 1.55 398 1.56
  67  0.417  0.625  0.000- 401 1.54 447 1.54 352 1.55 408 1.55
  68  0.415  0.627  0.501- 446 1.53 575 1.54 400 1.55 353 1.55
  69  0.417  0.875  0.000- 354 1.54 410 1.54 403 1.54 449 1.55
  70  0.417  0.875  0.500- 355 1.54 402 1.54 448 1.54 409 1.55
  71  0.583  0.125  1.000- 405 1.54 412 1.54 356 1.54 451 1.55
  72  0.583  0.125  0.500- 404 1.54 357 1.54 450 1.55 411 1.55
  73  0.583  0.375  1.000- 407 1.54 452 1.54 414 1.55 358 1.55
  74  0.583  0.625  0.000- 408 1.54 416 1.54 454 1.55 360 1.55
  75  0.583  0.624  0.501- 361 1.54 575 1.55 415 1.55 453 1.56
  76  0.583  0.875  0.000- 410 1.54 362 1.54 418 1.54 456 1.55
  77  0.583  0.875  0.500- 409 1.54 363 1.54 417 1.54 455 1.55
  78  0.750  0.125  1.000- 364 1.54 420 1.54 412 1.54 458 1.54
  79  0.750  0.125  0.500- 457 1.54 419 1.54 365 1.54 411 1.54
  80  0.750  0.375  0.999- 366 1.54 422 1.54 460 1.54 414 1.54
  81  0.751  0.374  0.500- 421 1.54 367 1.54 413 1.55 459 1.55
  82  0.750  0.625  1.000- 462 1.54 424 1.54 368 1.55 416 1.55
  83  0.750  0.624  0.500- 369 1.54 423 1.55 461 1.55 415 1.56
  84  0.750  0.875  0.000- 426 1.54 370 1.54 418 1.54 464 1.54
  85  0.750  0.875  0.500- 371 1.54 425 1.54 463 1.55 417 1.55
  86  0.917  0.125  1.000- 381 1.54 372 1.54 466 1.54 420 1.55
  87  0.917  0.125  0.500- 380 1.54 465 1.54 373 1.54 419 1.55
  88  0.917  0.375  1.000- 383 1.54 374 1.54 468 1.54 422 1.54
  89  0.917  0.375  0.500- 382 1.54 421 1.54 375 1.54 467 1.55
  90  0.917  0.625  1.000- 385 1.54 376 1.54 470 1.54 424 1.55
  91  0.917  0.625  0.500- 469 1.54 384 1.54 377 1.54 423 1.54
  92  0.917  0.875  0.000- 387 1.54 378 1.54 472 1.54 426 1.54
  93  0.917  0.875  0.500- 386 1.54 379 1.54 471 1.54 425 1.55
  94  0.000  0.083  0.333- 521 1.54 473 1.54 380 1.54 561 1.55
  95  0.000  0.083  0.833- 522 1.54 381 1.54 474 1.54 562 1.55
  96  0.000  0.333  0.333- 523 1.54 382 1.54 563 1.54 475 1.54
  97  0.000  0.333  0.833- 524 1.54 383 1.54 476 1.54 564 1.54
  98  1.000  0.583  0.333- 565 1.54 525 1.54 384 1.54 477 1.54
  99  1.000  0.583  0.833- 526 1.54 385 1.54 478 1.54 566 1.55
 100  1.000  0.833  0.333- 527 1.54 479 1.54 386 1.54 567 1.55
 101  1.000  0.833  0.833- 528 1.54 387 1.54 480 1.54 568 1.55
 102  0.167  0.083  0.333- 529 1.54 388 1.54 481 1.54 521 1.55
 103  0.167  0.083  0.833- 530 1.54 389 1.54 482 1.54 522 1.54
 104  0.167  0.333  0.333- 531 1.54 390 1.54 483 1.54 523 1.55
 105  0.167  0.333  0.834- 532 1.54 391 1.54 484 1.54 524 1.54
 106  0.166  0.584  0.333- 525 1.54 485 1.54 392 1.54 533 1.54
 107  0.166  0.584  0.834- 534 1.54 393 1.54 526 1.54 486 1.54
 108  0.167  0.833  0.333- 535 1.54 487 1.54 394 1.54 527 1.54
 109  0.166  0.833  0.833- 536 1.54 395 1.54 488 1.54 528 1.55
 110  0.333  0.083  0.333- 396 1.54 537 1.54 489 1.54 529 1.55
 111  0.333  0.083  0.833- 538 1.54 397 1.54 530 1.54 490 1.55
 112  0.334  0.334  0.334- 398 1.54 491 1.54 539 1.55 531 1.55
 113  0.333  0.333  0.834- 492 1.54 532 1.54 540 1.55 399 1.55
 114  0.333  0.584  0.334- 533 1.54 493 1.54 400 1.54 541 1.55
 115  0.333  0.584  0.834- 542 1.54 401 1.54 534 1.54 494 1.55
 116  0.333  0.833  0.333- 402 1.54 495 1.54 535 1.54 543 1.55
 117  0.333  0.833  0.833- 403 1.54 544 1.54 496 1.54 536 1.54
 118  0.500  0.083  0.333- 404 1.54 537 1.54 545 1.54 497 1.54
 119  0.500  0.083  0.833- 538 1.54 405 1.54 546 1.54 498 1.55
 120  0.500  0.333  0.333- 499 1.54 406 1.54 539 1.55 547 1.55
 121  0.500  0.334  0.833- 540 1.54 548 1.55 500 1.55 407 1.55
 122  0.500  0.582  0.335- 541 1.54 575 1.55 549 1.55 501 1.56
 123  0.500  0.583  0.833- 542 1.54 502 1.54 408 1.55 550 1.55
 124  0.500  0.833  0.333- 409 1.54 543 1.54 551 1.55 503 1.55
 125  0.500  0.833  0.834- 544 1.54 552 1.54 410 1.54 504 1.55
 126  0.667  0.083  0.333- 545 1.54 553 1.54 411 1.54 505 1.54
 127  0.667  0.083  0.833- 546 1.54 412 1.54 554 1.54 506 1.55
 128  0.668  0.332  0.332- 555 1.54 547 1.54 413 1.55 507 1.55
 129  0.667  0.333  0.833- 548 1.54 508 1.54 414 1.55 556 1.55
 130  0.667  0.583  0.333- 549 1.54 415 1.54 509 1.55 557 1.55
 131  0.666  0.583  0.833- 510 1.54 558 1.54 550 1.55 416 1.55
 132  0.667  0.833  0.333- 417 1.54 551 1.54 559 1.54 511 1.55
 133  0.667  0.833  0.833- 552 1.54 560 1.54 418 1.54 512 1.55
 134  0.834  0.083  0.333- 561 1.54 513 1.54 419 1.54 553 1.54
 135  0.833  0.083  0.833- 562 1.54 420 1.54 514 1.54 554 1.54
 136  0.834  0.333  0.333- 563 1.54 421 1.55 555 1.55 515 1.55
 137  0.833  0.333  0.833- 422 1.54 564 1.54 556 1.54 516 1.54
 138  0.833  0.583  0.333- 557 1.54 423 1.54 517 1.54 565 1.54
 139  0.833  0.583  0.833- 518 1.54 566 1.54 424 1.55 558 1.55
 140  0.833  0.833  0.333- 567 1.54 425 1.54 559 1.54 519 1.54
 141  0.833  0.833  0.833- 568 1.54 426 1.54 520 1.54 560 1.55
 142  0.084  0.208  0.333- 481 1.54 427 1.54 523 1.54 473 1.55
 143  0.083  0.208  0.833- 482 1.54 428 1.54 524 1.54 474 1.55
 144  0.083  0.458  0.333- 475 1.54 483 1.54 429 1.54 525 1.54
 145  0.083  0.458  0.833- 430 1.54 484 1.54 476 1.54 526 1.54
 146  0.083  0.708  0.333- 485 1.54 431 1.54 527 1.54 477 1.54
 147  0.083  0.708  0.833- 486 1.54 432 1.54 528 1.54 478 1.55
 148  0.083  0.958  0.333- 487 1.54 521 1.54 433 1.54 479 1.55
 149  0.083  0.958  0.833- 488 1.54 434 1.54 522 1.54 480 1.55
 150  0.250  0.208  0.333- 435 1.54 489 1.54 531 1.54 481 1.55
 151  0.250  0.208  0.833- 436 1.54 490 1.54 532 1.54 482 1.54
 152  0.250  0.459  0.334- 437 1.54 533 1.54 483 1.54 491 1.55
 153  0.250  0.458  0.834- 438 1.54 484 1.54 492 1.54 534 1.54
 154  0.250  0.709  0.333- 535 1.54 439 1.54 485 1.54 493 1.54
 155  0.250  0.709  0.834- 494 1.54 440 1.54 536 1.54 486 1.55
 156  0.250  0.958  0.333- 441 1.54 495 1.54 529 1.54 487 1.55
 157  0.250  0.958  0.833- 496 1.54 442 1.54 530 1.54 488 1.55
 158  0.417  0.208  0.333- 443 1.54 539 1.54 489 1.55 497 1.55
 159  0.417  0.208  0.833- 490 1.54 444 1.54 498 1.54 540 1.55
 160  0.417  0.459  0.335- 541 1.54 576 1.55 499 1.55 491 1.56
 161  0.416  0.459  0.833- 492 1.54 542 1.54 445 1.55 500 1.55
 162  0.416  0.708  0.334- 493 1.54 446 1.54 543 1.54 501 1.55
 163  0.416  0.708  0.834- 447 1.54 494 1.54 544 1.54 502 1.54
 164  0.417  0.958  0.333- 448 1.54 495 1.54 503 1.54 537 1.54
 165  0.417  0.958  0.833- 449 1.54 504 1.54 496 1.54 538 1.55
 166  0.584  0.208  0.333- 547 1.54 450 1.54 497 1.54 505 1.55
 167  0.583  0.208  0.833- 498 1.54 506 1.54 451 1.55 548 1.55
 168  0.583  0.458  0.833- 500 1.54 550 1.54 508 1.55 452 1.55
 169  0.583  0.708  0.334- 501 1.54 453 1.54 509 1.55 551 1.55
 170  0.583  0.708  0.833- 502 1.54 552 1.54 510 1.54 454 1.55
 171  0.583  0.958  0.333- 455 1.54 503 1.54 511 1.54 545 1.55
 172  0.583  0.958  0.833- 456 1.54 504 1.54 512 1.54 546 1.55
 173  0.750  0.208  0.333- 513 1.54 555 1.54 505 1.54 457 1.54
 174  0.750  0.208  0.833- 458 1.54 506 1.54 556 1.54 514 1.54
 175  0.751  0.458  0.332- 515 1.54 557 1.54 507 1.55 459 1.55
 176  0.750  0.458  0.833- 558 1.54 508 1.54 460 1.55 516 1.55
 177  0.750  0.708  0.333- 461 1.54 509 1.54 517 1.55 559 1.55
 178  0.750  0.708  0.833- 518 1.54 462 1.54 560 1.54 510 1.55
 179  0.750  0.958  0.333- 519 1.54 463 1.54 511 1.54 553 1.54
 180  0.750  0.958  0.833- 464 1.54 520 1.54 512 1.54 554 1.54
 181  0.917  0.208  0.333- 473 1.54 563 1.54 465 1.54 513 1.55
 182  0.917  0.208  0.833- 474 1.54 466 1.54 564 1.54 514 1.54
 183  0.917  0.458  0.333- 475 1.54 515 1.54 467 1.54 565 1.55
 184  0.917  0.458  0.833- 468 1.54 476 1.54 516 1.54 566 1.54
 185  0.917  0.708  0.333- 477 1.54 469 1.54 567 1.54 517 1.54
 186  0.916  0.708  0.833- 478 1.54 470 1.54 568 1.54 518 1.55
 187  0.917  0.958  0.333- 479 1.54 471 1.54 561 1.54 519 1.55
 188  0.917  0.958  0.833- 480 1.54 472 1.54 562 1.54 520 1.55
 189  0.000  0.167  0.167- 332 1.54 473 1.54 287 1.54 372 1.55
 190  0.000  0.167  0.667- 333 1.54 474 1.54 288 1.54 373 1.54
 191  0.000  0.417  0.167- 334 1.54 475 1.54 374 1.54 289 1.54
 192  0.000  0.417  0.667- 375 1.54 335 1.54 476 1.54 290 1.54
 193  1.000  0.667  0.167- 336 1.54 477 1.54 291 1.54 376 1.54
 194  1.000  0.667  0.667- 337 1.54 478 1.54 292 1.54 377 1.55
 195  1.000  0.917  0.167- 338 1.54 285 1.54 479 1.54 378 1.54
 196  1.000  0.917  0.667- 339 1.54 286 1.54 480 1.54 379 1.55
 197  0.167  0.167  0.167- 340 1.54 481 1.54 295 1.54 332 1.55
 198  0.167  0.167  0.667- 341 1.54 482 1.54 296 1.54 333 1.55
 199  0.167  0.417  0.167- 483 1.54 342 1.54 297 1.54 334 1.55
 200  0.166  0.417  0.667- 335 1.54 484 1.54 343 1.54 298 1.54
 201  0.167  0.667  0.167- 485 1.54 344 1.54 299 1.54 336 1.54
 202  0.166  0.667  0.667- 345 1.54 486 1.54 300 1.54 337 1.54
 203  0.167  0.917  0.167- 346 1.54 487 1.54 293 1.54 338 1.55
 204  0.167  0.917  0.667- 347 1.54 488 1.54 294 1.54 339 1.55
 205  0.333  0.167  0.167- 489 1.54 348 1.54 303 1.54 340 1.55
 206  0.333  0.167  0.667- 490 1.54 341 1.54 349 1.54 304 1.55
 207  0.334  0.417  0.167- 305 1.54 350 1.54 342 1.55 491 1.55
 208  0.333  0.417  0.667- 343 1.54 492 1.54 306 1.54 351 1.55
 209  0.333  0.667  0.167- 493 1.54 344 1.54 307 1.54 352 1.55
 210  0.333  0.667  0.667- 353 1.54 494 1.54 308 1.54 345 1.55
 211  0.333  0.917  0.167- 495 1.54 346 1.54 354 1.54 301 1.54
 212  0.333  0.917  0.667- 355 1.54 496 1.54 302 1.54 347 1.54
 213  0.500  0.167  0.167- 348 1.54 356 1.54 497 1.54 311 1.54
 214  0.500  0.167  0.667- 349 1.54 498 1.54 357 1.55 312 1.55
 215  0.501  0.417  0.167- 313 1.54 358 1.55 350 1.55 499 1.56
 216  0.500  0.417  0.665- 351 1.54 574 1.55 359 1.55 500 1.56
 217  0.500  0.666  0.167- 352 1.54 360 1.55 314 1.55 501 1.55
 218  0.500  0.667  0.667- 315 1.54 502 1.54 353 1.54 361 1.55
 219  0.500  0.917  0.167- 354 1.54 503 1.54 362 1.54 309 1.55
 220  0.500  0.917  0.667- 355 1.54 504 1.54 363 1.54 310 1.55
 221  0.667  0.167  0.166- 364 1.54 505 1.54 356 1.54 318 1.54
 222  0.667  0.167  0.667- 506 1.54 357 1.54 319 1.54 365 1.55
 223  0.667  0.416  0.166- 507 1.53 366 1.54 358 1.54 320 1.54
 224  0.667  0.417  0.666- 359 1.54 321 1.54 508 1.55 367 1.55
 225  0.667  0.666  0.167- 360 1.54 509 1.54 368 1.55 322 1.55
 226  0.666  0.667  0.667- 323 1.54 510 1.54 361 1.55 369 1.55
 227  0.667  0.917  0.167- 511 1.54 362 1.54 370 1.54 316 1.55
 228  0.667  0.917  0.667- 371 1.54 512 1.54 363 1.54 317 1.54
 229  0.834  0.166  0.166- 372 1.54 513 1.54 326 1.54 364 1.54
 230  0.833  0.166  0.667- 514 1.54 327 1.54 373 1.54 365 1.54
 231  0.834  0.416  0.166- 374 1.54 515 1.54 328 1.54 366 1.54
 232  0.834  0.416  0.667- 367 1.54 516 1.54 329 1.54 375 1.54
 233  0.833  0.667  0.167- 376 1.54 517 1.54 330 1.54 368 1.54
 234  0.833  0.667  0.667- 377 1.54 518 1.54 331 1.54 369 1.55
 235  0.833  0.917  0.167- 378 1.54 519 1.54 370 1.54 324 1.54
 236  0.833  0.917  0.667- 379 1.54 520 1.54 325 1.54 371 1.55
 237  0.083  0.042  0.167- 293 1.54 521 1.54 332 1.54 285 1.55
 238  0.083  0.042  0.667- 294 1.54 333 1.54 522 1.54 286 1.55
 239  0.084  0.292  0.167- 295 1.54 523 1.54 334 1.54 287 1.55
 240  0.083  0.292  0.667- 296 1.54 524 1.54 335 1.54 288 1.54
 241  0.083  0.542  0.167- 525 1.54 297 1.54 289 1.54 336 1.54
 242  0.083  0.542  0.667- 298 1.54 290 1.54 526 1.54 337 1.54
 243  0.083  0.792  0.167- 299 1.54 527 1.54 338 1.54 291 1.55
 244  0.083  0.792  0.667- 300 1.54 339 1.54 528 1.54 292 1.55
 245  0.250  0.042  0.167- 301 1.54 529 1.54 340 1.54 293 1.55
 246  0.250  0.042  0.667- 302 1.54 530 1.54 341 1.54 294 1.55
 247  0.250  0.292  0.167- 342 1.54 303 1.54 531 1.54 295 1.55
 248  0.250  0.292  0.667- 343 1.54 296 1.54 532 1.54 304 1.55
 249  0.250  0.542  0.167- 533 1.54 344 1.54 297 1.54 305 1.55
 250  0.249  0.542  0.667- 306 1.54 298 1.54 534 1.54 345 1.55
 251  0.250  0.792  0.167- 535 1.54 346 1.54 307 1.54 299 1.54
 252  0.250  0.792  0.667- 308 1.54 347 1.54 536 1.54 300 1.55
 253  0.417  0.042  0.167- 537 1.54 301 1.54 309 1.54 348 1.54
 254  0.417  0.042  0.667- 538 1.54 302 1.54 310 1.54 349 1.55
 255  0.417  0.292  0.167- 350 1.54 539 1.54 311 1.54 303 1.55
 256  0.417  0.292  0.667- 304 1.54 540 1.54 351 1.55 312 1.55
 257  0.417  0.542  0.167- 305 1.54 352 1.54 541 1.55 313 1.55
 258  0.415  0.543  0.669- 574 1.53 542 1.53 306 1.55 353 1.55
 259  0.417  0.792  0.167- 543 1.54 307 1.54 314 1.54 354 1.55
 260  0.416  0.792  0.667- 355 1.54 544 1.54 308 1.54 315 1.55
 261  0.583  0.042  0.167- 309 1.54 316 1.54 545 1.54 356 1.55
 262  0.583  0.042  0.667- 546 1.54 310 1.54 317 1.54 357 1.55
 263  0.584  0.292  0.166- 547 1.54 358 1.54 311 1.54 318 1.54
 264  0.583  0.292  0.666- 312 1.54 319 1.55 548 1.55 359 1.56
 265  0.583  0.541  0.167- 313 1.54 320 1.55 360 1.55 549 1.56
 266  0.583  0.542  0.665- 361 1.54 574 1.55 321 1.55 550 1.56
 267  0.583  0.792  0.167- 314 1.54 551 1.54 322 1.54 362 1.55
 268  0.583  0.792  0.667- 315 1.54 552 1.54 363 1.54 323 1.55
 269  0.750  0.042  0.167- 324 1.54 553 1.54 316 1.54 364 1.54
 270  0.750  0.042  0.667- 554 1.54 317 1.54 325 1.54 365 1.54
 271  0.750  0.291  0.166- 326 1.54 555 1.54 318 1.54 366 1.55
 272  0.750  0.291  0.666- 367 1.54 319 1.54 556 1.54 327 1.54
 273  0.750  0.542  0.166- 557 1.54 320 1.54 368 1.54 328 1.54
 274  0.750  0.541  0.666- 369 1.54 329 1.55 558 1.55 321 1.56
 275  0.750  0.792  0.167- 322 1.54 330 1.54 559 1.54 370 1.55
 276  0.750  0.792  0.667- 331 1.54 560 1.54 371 1.54 323 1.55
 277  0.917  0.042  0.167- 285 1.54 561 1.54 372 1.54 324 1.55
 278  0.917  0.042  0.667- 286 1.54 373 1.54 562 1.54 325 1.55
 279  0.917  0.291  0.166- 287 1.54 563 1.54 374 1.54 326 1.55
 280  0.917  0.292  0.667- 288 1.54 564 1.54 375 1.54 327 1.54
 281  0.917  0.542  0.166- 289 1.54 565 1.54 328 1.54 376 1.54
 282  0.917  0.542  0.667- 566 1.54 290 1.54 329 1.54 377 1.54
 283  0.917  0.792  0.167- 291 1.54 567 1.54 378 1.54 330 1.54
 284  0.916  0.792  0.667- 292 1.54 568 1.54 379 1.54 331 1.55
 285  0.000  1.000  0.125- 277 1.54   1 1.54 195 1.54 237 1.55
 286  1.000  1.000  0.625- 278 1.54 196 1.54   2 1.54 238 1.55
 287  0.000  0.250  0.125- 279 1.54   3 1.54 189 1.54 239 1.55
 288  0.000  0.250  0.625- 280 1.54 190 1.54   4 1.54 240 1.54
 289  0.000  0.500  0.125-   5 1.54 281 1.54 241 1.54 191 1.54
 290  1.000  0.500  0.625- 242 1.54 282 1.54   6 1.54 192 1.54
 291  1.000  0.750  0.125- 283 1.54   7 1.54 193 1.54 243 1.55
 292  1.000  0.750  0.625- 284 1.54   8 1.54 194 1.54 244 1.55
 293  0.167  0.000  0.125- 237 1.54   9 1.54 203 1.54 245 1.55
 294  0.167  0.000  0.625- 238 1.54  10 1.54 204 1.54 246 1.55
 295  0.167  0.250  0.125- 239 1.54  11 1.54 197 1.54 247 1.55
 296  0.167  0.250  0.625- 240 1.54  12 1.54 198 1.54 248 1.54
 297  0.167  0.500  0.125-  13 1.54 241 1.54 249 1.54 199 1.54
 298  0.166  0.500  0.625- 242 1.54 250 1.54  14 1.54 200 1.54
 299  0.167  0.750  0.125- 243 1.54  15 1.54 201 1.54 251 1.54
 300  0.166  0.750  0.625- 244 1.54 202 1.54  16 1.54 252 1.55
 301  0.333  0.000  0.125-  17 1.54 245 1.54 253 1.54 211 1.54
 302  0.333  0.000  0.625- 246 1.54  18 1.54 254 1.54 212 1.54
 303  0.334  0.250  0.125- 247 1.54  19 1.54 205 1.54 255 1.55
 304  0.333  0.250  0.625-  20 1.54 256 1.54 248 1.55 206 1.55
 305  0.333  0.500  0.125- 207 1.54 257 1.54  21 1.55 249 1.55
 306  0.332  0.500  0.626- 250 1.54 208 1.54 258 1.55  22 1.55
 307  0.333  0.750  0.125-  23 1.54 259 1.54 209 1.54 251 1.54
 308  0.333  0.750  0.625- 252 1.54 210 1.54 260 1.54  24 1.54
 309  0.500  0.000  0.125-  25 1.54 261 1.54 253 1.54 219 1.55
 310  0.500  0.000  0.625-  26 1.54 262 1.54 254 1.54 220 1.55
 311  0.500  0.250  0.125- 263 1.54 213 1.54 255 1.54  27 1.55
 312  0.500  0.250  0.625- 264 1.54  28 1.54 256 1.55 214 1.55
 313  0.500  0.500  0.125- 265 1.54 215 1.54 257 1.55  29 1.55
 314  0.500  0.750  0.125- 267 1.54 259 1.54  30 1.55 217 1.55
 315  0.500  0.750  0.625- 218 1.54  31 1.54 268 1.54 260 1.55
 316  0.667  1.000  0.125-  32 1.54 261 1.54 269 1.54 227 1.55
 317  0.667  1.000  0.625-  33 1.54 270 1.54 262 1.54 228 1.54
 318  0.667  0.250  0.125-  34 1.54 221 1.54 271 1.54 263 1.54
 319  0.667  0.250  0.625- 272 1.54  35 1.54 222 1.54 264 1.55
 320  0.667  0.500  0.125- 273 1.54 223 1.54  36 1.55 265 1.55
 321  0.666  0.499  0.624- 224 1.54 571 1.55 266 1.55 274 1.56
 322  0.667  0.750  0.125- 275 1.54  37 1.54 267 1.54 225 1.55
 323  0.666  0.750  0.625-  38 1.54 226 1.54 276 1.55 268 1.55
 324  0.833  1.000  0.125- 269 1.54  39 1.54 235 1.54 277 1.55
 325  0.833  1.000  0.625-  40 1.54 270 1.54 236 1.54 278 1.55
 326  0.834  0.250  0.125- 271 1.54  41 1.54 229 1.54 279 1.55
 327  0.834  0.250  0.625- 230 1.54  42 1.54 280 1.54 272 1.54
 328  0.834  0.500  0.125-  43 1.54 281 1.54 273 1.54 231 1.54
 329  0.833  0.500  0.625-  44 1.54 232 1.54 282 1.54 274 1.55
 330  0.833  0.750  0.125-  45 1.54 275 1.54 233 1.54 283 1.54
 331  0.833  0.750  0.625-  46 1.54 276 1.54 234 1.54 284 1.55
 332  0.083  0.125  0.125- 189 1.54  47 1.54 237 1.54 197 1.55
 333  0.083  0.125  0.625- 190 1.54 238 1.54  48 1.54 198 1.55
 334  0.084  0.375  0.125- 191 1.54  49 1.54 239 1.54 199 1.55
 335  0.083  0.375  0.625- 200 1.54 192 1.54 240 1.54  50 1.54
 336  0.083  0.625  0.125- 193 1.54  51 1.54 241 1.54 201 1.54
 337  0.083  0.625  0.625- 194 1.54  52 1.54 242 1.54 202 1.54
 338  0.083  0.875  0.125- 195 1.54  53 1.54 243 1.54 203 1.55
 339  0.083  0.875  0.625- 196 1.54 244 1.54  54 1.54 204 1.55
 340  0.250  0.125  0.125- 197 1.54  55 1.54 245 1.54 205 1.55
 341  0.250  0.125  0.625- 198 1.54  56 1.54 206 1.54 246 1.54
 342  0.250  0.375  0.125- 247 1.54 199 1.54  57 1.55 207 1.55
 343  0.250  0.375  0.625- 208 1.54  58 1.54 248 1.54 200 1.54
 344  0.250  0.625  0.125-  59 1.54 201 1.54 249 1.54 209 1.54
 345  0.249  0.625  0.625- 202 1.54  60 1.55 210 1.55 250 1.55
 346  0.250  0.875  0.125- 203 1.54  61 1.54 251 1.54 211 1.54
 347  0.250  0.875  0.625- 204 1.54 252 1.54  62 1.54 212 1.54
 348  0.417  0.125  0.125- 213 1.54 205 1.54  63 1.54 253 1.54
 349  0.417  0.125  0.625-  64 1.54 214 1.54 206 1.54 254 1.55
 350  0.417  0.375  0.126- 255 1.54 207 1.54 215 1.55  65 1.55
 351  0.416  0.375  0.625- 216 1.54  66 1.54 256 1.55 208 1.55
 352  0.417  0.625  0.125- 217 1.54 257 1.54  67 1.55 209 1.55
 353  0.416  0.626  0.626- 210 1.54 218 1.54  68 1.55 258 1.55
 354  0.417  0.875  0.125- 219 1.54  69 1.54 211 1.54 259 1.55
 355  0.417  0.875  0.625- 220 1.54 212 1.54 260 1.54  70 1.54
 356  0.583  0.125  0.125- 221 1.54 213 1.54  71 1.54 261 1.55
 357  0.583  0.125  0.625-  72 1.54 222 1.54 214 1.55 262 1.55
 358  0.584  0.375  0.125- 223 1.54 263 1.54  73 1.55 215 1.55
 359  0.584  0.376  0.624- 224 1.54 572 1.55 216 1.55 264 1.56
 360  0.583  0.625  0.126- 225 1.54 217 1.55 265 1.55  74 1.55
 361  0.583  0.625  0.625- 266 1.54  75 1.54 226 1.55 218 1.55
 362  0.583  0.875  0.125- 227 1.54  76 1.54 219 1.54 267 1.55
 363  0.583  0.875  0.625-  77 1.54 228 1.54 268 1.54 220 1.54
 364  0.750  0.125  0.125-  78 1.54 221 1.54 269 1.54 229 1.54
 365  0.750  0.125  0.625- 270 1.54  79 1.54 230 1.54 222 1.55
 366  0.751  0.375  0.124- 223 1.54  80 1.54 231 1.54 271 1.55
 367  0.750  0.375  0.625- 232 1.54 272 1.54  81 1.54 224 1.55
 368  0.750  0.625  0.125- 273 1.54 233 1.54 225 1.55  82 1.55
 369  0.750  0.625  0.625-  83 1.54 274 1.54 226 1.55 234 1.55
 370  0.750  0.875  0.125- 227 1.54  84 1.54 235 1.54 275 1.55
 371  0.750  0.875  0.625-  85 1.54 228 1.54 276 1.54 236 1.55
 372  0.917  0.125  0.125- 229 1.54  86 1.54 277 1.54 189 1.55
 373  0.917  0.125  0.625- 230 1.54 278 1.54  87 1.54 190 1.54
 374  0.917  0.375  0.125- 231 1.54  88 1.54 191 1.54 279 1.54
 375  0.917  0.375  0.625- 192 1.54 280 1.54  89 1.54 232 1.54
 376  0.917  0.625  0.125- 233 1.54  90 1.54 281 1.54 193 1.54
 377  0.916  0.625  0.625- 234 1.54  91 1.54 282 1.54 194 1.55
 378  0.917  0.875  0.125- 235 1.54  92 1.54 283 1.54 195 1.54
 379  0.917  0.875  0.625- 236 1.54  93 1.54 284 1.54 196 1.55
 380  0.000  0.083  0.458-  87 1.54   2 1.54  94 1.54  48 1.55
 381  0.000  0.083  0.958-  86 1.54  95 1.54   1 1.54  47 1.55
 382  0.000  0.333  0.458-  89 1.54  50 1.54   4 1.54  96 1.54
 383  0.000  0.333  0.958-  88 1.54  97 1.54   3 1.54  49 1.55
 384  1.000  0.583  0.458-  52 1.54  91 1.54  98 1.54   6 1.55
 385  1.000  0.583  0.958-  90 1.54  99 1.54   5 1.54  51 1.55
 386  1.000  0.833  0.458-  93 1.54   8 1.54 100 1.54  54 1.55
 387  1.000  0.833  0.958-  92 1.54 101 1.54   7 1.54  53 1.55
 388  0.167  0.083  0.458-  48 1.54 102 1.54  10 1.54  56 1.55
 389  0.167  0.083  0.958-  47 1.54 103 1.54   9 1.54  55 1.54
 390  0.167  0.333  0.458-  12 1.54  50 1.54 104 1.54  58 1.54
 391  0.167  0.333  0.958-  49 1.54 105 1.54  11 1.54  57 1.55
 392  0.166  0.584  0.458-  52 1.54  60 1.54 106 1.54  14 1.55
 393  0.166  0.583  0.959-  51 1.54 107 1.54  13 1.54  59 1.54
 394  0.166  0.834  0.458-  54 1.54  16 1.54 108 1.54  62 1.55
 395  0.167  0.833  0.958-  53 1.54 109 1.54  15 1.54  61 1.55
 396  0.333  0.084  0.458- 110 1.54  56 1.54  18 1.55  64 1.55
 397  0.333  0.083  0.958-  55 1.54 111 1.54  63 1.54  17 1.54
 398  0.334  0.334  0.458- 112 1.54  58 1.55  20 1.55  66 1.56
 399  0.333  0.333  0.959-  19 1.54  57 1.54 113 1.55  65 1.55
 400  0.332  0.584  0.459-  60 1.54 114 1.54  68 1.55  22 1.55
 401  0.333  0.584  0.959- 115 1.54  59 1.54  21 1.54  67 1.54
 402  0.333  0.834  0.458-  24 1.54  62 1.54 116 1.54  70 1.54
 403  0.333  0.833  0.958- 117 1.54  61 1.54  69 1.54  23 1.54
 404  0.500  0.083  0.458-  72 1.54 118 1.54  64 1.54  26 1.55
 405  0.500  0.083  0.958-  71 1.54 119 1.54  63 1.54  25 1.55
 406  0.501  0.334  0.458- 120 1.54 572 1.55  66 1.55  28 1.56
 407  0.500  0.334  0.958-  73 1.54  65 1.54  27 1.55 121 1.55
 408  0.500  0.583  0.959-  74 1.54  29 1.54  67 1.55 123 1.55
 409  0.500  0.833  0.458-  77 1.54 124 1.54  31 1.55  70 1.55
 410  0.500  0.833  0.959-  76 1.54  69 1.54 125 1.54  30 1.55
 411  0.667  0.083  0.458- 126 1.54  79 1.54  33 1.54  72 1.55
 412  0.667  0.083  0.958- 127 1.54  71 1.54  78 1.54  32 1.55
 413  0.669  0.332  0.458-  35 1.53 572 1.54  81 1.55 128 1.55
 414  0.667  0.333  0.958-  80 1.54  34 1.54 129 1.55  73 1.55
 415  0.666  0.582  0.458- 130 1.54 571 1.55  75 1.55  83 1.56
 416  0.666  0.583  0.958-  36 1.54  74 1.54  82 1.55 131 1.55
 417  0.666  0.833  0.458- 132 1.54  77 1.54  85 1.55  38 1.55
 418  0.667  0.833  0.958-  76 1.54 133 1.54  84 1.54  37 1.55
 419  0.834  0.083  0.458-  79 1.54  40 1.54 134 1.54  87 1.55
 420  0.833  0.083  0.958- 135 1.54  78 1.54  39 1.54  86 1.55
 421  0.834  0.333  0.458-  81 1.54  89 1.54  42 1.54 136 1.55
 422  0.834  0.333  0.958-  80 1.54 137 1.54  41 1.54  88 1.54
 423  0.833  0.583  0.458- 138 1.54  44 1.54  91 1.54  83 1.55
 424  0.833  0.583  0.958-  82 1.54  43 1.54 139 1.55  90 1.55
 425  0.833  0.833  0.458- 140 1.54  85 1.54  46 1.55  93 1.55
 426  0.833  0.833  0.958-  84 1.54 141 1.54  45 1.54  92 1.54
 427  0.084  0.208  0.458-   4 1.54  48 1.54 142 1.54  12 1.55
 428  0.083  0.208  0.958-   3 1.54 143 1.54  47 1.54  11 1.55
 429  0.083  0.458  0.458-  14 1.54   6 1.54 144 1.54  50 1.55
 430  0.083  0.458  0.958- 145 1.54   5 1.54  49 1.54  13 1.54
 431  0.083  0.708  0.458-   8 1.54  52 1.54 146 1.54  16 1.54
 432  0.083  0.708  0.958-   7 1.54 147 1.54  51 1.54  15 1.55
 433  0.083  0.958  0.458-   2 1.54  54 1.54 148 1.54  10 1.55
 434  0.083  0.958  0.958-   1 1.54 149 1.54  53 1.54   9 1.54
 435  0.250  0.209  0.458- 150 1.54  12 1.54  56 1.55  20 1.55
 436  0.250  0.208  0.958-  11 1.54 151 1.54  55 1.54  19 1.55
 437  0.249  0.459  0.459-  22 1.53  14 1.54 152 1.54  58 1.54
 438  0.250  0.458  0.959- 153 1.54  13 1.54  57 1.54  21 1.54
 439  0.249  0.709  0.458-  16 1.54  60 1.54 154 1.54  24 1.54
 440  0.250  0.708  0.959-  15 1.54 155 1.54  23 1.54  59 1.54
 441  0.250  0.959  0.458-  10 1.54  62 1.54 156 1.54  18 1.55
 442  0.250  0.958  0.958-   9 1.54 157 1.54  17 1.54  61 1.54
 443  0.417  0.209  0.458- 158 1.54  20 1.54  28 1.55  64 1.55
 444  0.417  0.208  0.958-  27 1.54  19 1.54 159 1.54  63 1.55
 445  0.417  0.458  0.959-  65 1.54  29 1.54  21 1.55 161 1.55
 446  0.416  0.709  0.459-  68 1.53  24 1.54 162 1.54  31 1.54
 447  0.417  0.708  0.959-  30 1.54 163 1.54  23 1.54  67 1.54
 448  0.417  0.958  0.458- 164 1.54  26 1.54  18 1.54  70 1.54
 449  0.417  0.958  0.958-  25 1.54 165 1.54  17 1.54  69 1.55
 450  0.584  0.208  0.458-  35 1.54 166 1.54  72 1.55  28 1.55
 451  0.583  0.208  0.958-  34 1.54  27 1.54 167 1.55  71 1.55
 452  0.583  0.458  0.958-  36 1.54  73 1.54  29 1.55 168 1.55
 453  0.583  0.708  0.458- 169 1.54  31 1.55  38 1.55  75 1.56
 454  0.583  0.708  0.959-  37 1.54  30 1.54 170 1.55  74 1.55
 455  0.583  0.958  0.458-  33 1.54 171 1.54  26 1.54  77 1.55
 456  0.583  0.958  0.958-  32 1.54 172 1.54  25 1.54  76 1.55
 457  0.751  0.208  0.458-  35 1.54  79 1.54 173 1.54  42 1.54
 458  0.750  0.208  0.958- 174 1.54  34 1.54  41 1.54  78 1.54
 459  0.753  0.458  0.458-  44 1.53 571 1.53 175 1.55  81 1.55
 460  0.750  0.458  0.958-  43 1.54  80 1.54 176 1.55  36 1.55
 461  0.750  0.708  0.458- 177 1.54  38 1.54  46 1.55  83 1.55
 462  0.750  0.708  0.958-  37 1.54  82 1.54 178 1.54  45 1.55
 463  0.750  0.958  0.458- 179 1.54  33 1.54  40 1.55  85 1.55
 464  0.750  0.958  0.958- 180 1.54  32 1.54  39 1.54  84 1.54
 465  0.917  0.208  0.458-  42 1.54  87 1.54 181 1.54   4 1.54
 466  0.917  0.208  0.958-  41 1.54 182 1.54  86 1.54   3 1.55
 467  0.917  0.458  0.458-  44 1.54   6 1.54 183 1.54  89 1.55
 468  0.917  0.458  0.958- 184 1.54  43 1.54   5 1.54  88 1.54
 469  0.916  0.708  0.458-  46 1.54  91 1.54 185 1.54   8 1.55
 470  0.917  0.708  0.958-  45 1.54 186 1.54  90 1.54   7 1.55
 471  0.917  0.958  0.458-  40 1.54 187 1.54  93 1.54   2 1.55
 472  0.917  0.958  0.958-  39 1.54 188 1.54  92 1.54   1 1.54
 473  0.000  0.167  0.292- 181 1.54 189 1.54  94 1.54 142 1.55
 474  0.000  0.167  0.792- 182 1.54 190 1.54  95 1.54 143 1.55
 475  0.000  0.417  0.291- 183 1.54 144 1.54 191 1.54  96 1.54
 476  0.000  0.417  0.792- 192 1.54 184 1.54 145 1.54  97 1.54
 477  1.000  0.667  0.292- 185 1.54 193 1.54  98 1.54 146 1.54
 478  1.000  0.667  0.792- 186 1.54 194 1.54  99 1.54 147 1.55
 479  1.000  0.917  0.292- 187 1.54 100 1.54 195 1.54 148 1.55
 480  1.000  0.917  0.792- 188 1.54 196 1.54 101 1.54 149 1.55
 481  0.167  0.167  0.292- 142 1.54 197 1.54 102 1.54 150 1.55
 482  0.167  0.167  0.792- 143 1.54 198 1.54 103 1.54 151 1.54
 483  0.167  0.417  0.292- 199 1.54 144 1.54 152 1.54 104 1.54
 484  0.167  0.417  0.792- 145 1.54 200 1.54 153 1.54 105 1.54
 485  0.166  0.667  0.292- 146 1.54 201 1.54 154 1.54 106 1.54
 486  0.166  0.667  0.792- 147 1.54 202 1.54 107 1.54 155 1.55
 487  0.167  0.917  0.292- 148 1.54 108 1.54 203 1.54 156 1.55
 488  0.167  0.917  0.792- 149 1.54 204 1.54 109 1.54 157 1.55
 489  0.334  0.167  0.292- 150 1.54 205 1.54 110 1.54 158 1.55
 490  0.333  0.167  0.792- 159 1.54 151 1.54 206 1.54 111 1.55
 491  0.334  0.417  0.293- 112 1.54 152 1.55 207 1.55 160 1.56
 492  0.333  0.417  0.792- 208 1.54 161 1.54 113 1.54 153 1.54
 493  0.333  0.667  0.292- 114 1.54 162 1.54 209 1.54 154 1.54
 494  0.333  0.667  0.792- 155 1.54 210 1.54 163 1.54 115 1.55
 495  0.333  0.917  0.292- 211 1.54 164 1.54 156 1.54 116 1.54
 496  0.333  0.917  0.792- 157 1.54 212 1.54 165 1.54 117 1.54
 497  0.500  0.167  0.292- 166 1.54 213 1.54 118 1.54 158 1.55
 498  0.500  0.167  0.791- 167 1.54 214 1.54 159 1.54 119 1.55
 499  0.501  0.417  0.293- 120 1.54 573 1.55 160 1.55 215 1.56
 500  0.500  0.417  0.791- 168 1.54 161 1.55 121 1.55 216 1.56
 501  0.500  0.666  0.293- 169 1.54 162 1.55 217 1.55 122 1.56
 502  0.500  0.667  0.792- 218 1.54 123 1.54 170 1.54 163 1.54
 503  0.500  0.917  0.292- 219 1.54 171 1.54 164 1.54 124 1.55
 504  0.500  0.917  0.792- 172 1.54 165 1.54 220 1.54 125 1.55
 505  0.667  0.166  0.291- 126 1.54 221 1.54 173 1.54 166 1.55
 506  0.667  0.167  0.791- 222 1.54 174 1.54 167 1.54 127 1.55
 507  0.669  0.416  0.290- 573 1.53 223 1.53 175 1.55 128 1.55
 508  0.667  0.417  0.791- 176 1.54 129 1.54 224 1.55 168 1.55
 509  0.667  0.666  0.292- 177 1.54 225 1.54 130 1.55 169 1.55
 510  0.666  0.667  0.792- 131 1.54 226 1.54 170 1.54 178 1.55
 511  0.667  0.917  0.292- 227 1.54 179 1.54 171 1.54 132 1.55
 512  0.667  0.917  0.792- 228 1.54 180 1.54 172 1.54 133 1.55
 513  0.834  0.166  0.291- 173 1.54 134 1.54 229 1.54 181 1.55
 514  0.833  0.167  0.792- 230 1.54 135 1.54 174 1.54 182 1.54
 515  0.834  0.416  0.291- 175 1.54 183 1.54 231 1.54 136 1.55
 516  0.833  0.417  0.791- 232 1.54 184 1.54 137 1.54 176 1.55
 517  0.833  0.667  0.292- 138 1.54 185 1.54 233 1.54 177 1.55
 518  0.833  0.667  0.792- 139 1.54 178 1.54 234 1.54 186 1.55
 519  0.833  0.917  0.292- 179 1.54 235 1.54 140 1.54 187 1.55
 520  0.833  0.917  0.792- 180 1.54 236 1.54 141 1.54 188 1.55
 521  0.083  0.042  0.292-  94 1.54 148 1.54 237 1.54 102 1.55
 522  0.083  0.042  0.792-  95 1.54 238 1.54 149 1.54 103 1.54
 523  0.084  0.292  0.292-  96 1.54 239 1.54 142 1.54 104 1.55
 524  0.083  0.292  0.792-  97 1.54 240 1.54 143 1.54 105 1.54
 525  0.083  0.542  0.292- 106 1.54  98 1.54 241 1.54 144 1.54
 526  0.083  0.542  0.792-  99 1.54 242 1.54 107 1.54 145 1.54
 527  0.083  0.792  0.292- 100 1.54 243 1.54 146 1.54 108 1.54
 528  0.083  0.792  0.792- 101 1.54 244 1.54 147 1.54 109 1.55
 529  0.250  0.042  0.292- 102 1.54 245 1.54 156 1.54 110 1.55
 530  0.250  0.042  0.792- 103 1.54 246 1.54 111 1.54 157 1.54
 531  0.250  0.292  0.292- 104 1.54 247 1.54 150 1.54 112 1.55
 532  0.250  0.292  0.792- 105 1.54 248 1.54 151 1.54 113 1.54
 533  0.250  0.542  0.292- 114 1.54 249 1.54 152 1.54 106 1.54
 534  0.249  0.542  0.792- 107 1.54 250 1.54 153 1.54 115 1.54
 535  0.250  0.792  0.292- 251 1.54 154 1.54 108 1.54 116 1.54
 536  0.250  0.792  0.792- 109 1.54 252 1.54 155 1.54 117 1.54
 537  0.417  0.042  0.292- 110 1.54 253 1.54 118 1.54 164 1.54
 538  0.417  0.042  0.792- 254 1.54 119 1.54 111 1.54 165 1.55
 539  0.417  0.292  0.292- 255 1.54 158 1.54 120 1.55 112 1.55
 540  0.417  0.292  0.792- 121 1.54 256 1.54 113 1.55 159 1.55
 541  0.416  0.542  0.292- 122 1.54 160 1.54 257 1.55 114 1.55
 542  0.416  0.542  0.793- 258 1.53 115 1.54 123 1.54 161 1.54
 543  0.417  0.792  0.292- 259 1.54 124 1.54 162 1.54 116 1.55
 544  0.417  0.792  0.792- 117 1.54 260 1.54 125 1.54 163 1.54
 545  0.583  0.042  0.292- 126 1.54 261 1.54 118 1.54 171 1.55
 546  0.583  0.042  0.792- 127 1.54 262 1.54 119 1.54 172 1.55
 547  0.584  0.291  0.291- 166 1.54 263 1.54 128 1.54 120 1.55
 548  0.583  0.292  0.791- 129 1.54 121 1.55 264 1.55 167 1.55
 549  0.584  0.541  0.293- 130 1.54 573 1.55 122 1.55 265 1.56
 550  0.583  0.541  0.791- 168 1.54 123 1.55 131 1.55 266 1.56
 551  0.583  0.792  0.292- 132 1.54 267 1.54 124 1.55 169 1.55
 552  0.583  0.792  0.792- 133 1.54 125 1.54 268 1.54 170 1.54
 553  0.750  0.041  0.292- 126 1.54 269 1.54 179 1.54 134 1.54
 554  0.750  0.042  0.792- 270 1.54 135 1.54 127 1.54 180 1.54
 555  0.751  0.291  0.291- 128 1.54 271 1.54 173 1.54 136 1.55
 556  0.750  0.292  0.791- 272 1.54 137 1.54 174 1.54 129 1.55
 557  0.750  0.541  0.291- 138 1.54 273 1.54 175 1.54 130 1.55
 558  0.750  0.541  0.791- 176 1.54 131 1.54 139 1.55 274 1.55
 559  0.750  0.791  0.292- 275 1.54 140 1.54 132 1.54 177 1.55
 560  0.750  0.792  0.792- 276 1.54 133 1.54 178 1.54 141 1.55
 561  0.917  0.042  0.292- 134 1.54 277 1.54 187 1.54  94 1.55
 562  0.917  0.042  0.792- 135 1.54 278 1.54 188 1.54  95 1.55
 563  0.917  0.291  0.291- 136 1.54 279 1.54 181 1.54  96 1.54
 564  0.917  0.292  0.792- 280 1.54 137 1.54 182 1.54  97 1.54
 565  0.917  0.542  0.291-  98 1.54 281 1.54 138 1.54 183 1.55
 566  0.917  0.542  0.792- 282 1.54 139 1.54 184 1.54  99 1.55
 567  0.917  0.792  0.292- 140 1.54 283 1.54 185 1.54 100 1.55
 568  0.916  0.792  0.792- 141 1.54 284 1.54 186 1.54 101 1.55
 569  0.487  0.507  0.507- 574 1.48 576 1.48 575 1.48
 570  0.596  0.452  0.452- 573 1.48 571 1.48 572 1.48
 571  0.669  0.498  0.498- 570 1.48 459 1.53 415 1.55 321 1.55
 572  0.586  0.374  0.498- 570 1.48 413 1.54 406 1.55 359 1.55
 573  0.586  0.457  0.333- 570 1.48 507 1.53 499 1.55 549 1.55
 574  0.497  0.502  0.626- 569 1.48 258 1.53 266 1.55 216 1.55
 575  0.497  0.584  0.460- 569 1.48  68 1.54  75 1.55 122 1.55
 576  0.414  0.460  0.460- 569 1.48  22 1.53  66 1.55 160 1.55
 
  LATTYP: Found a simple orthorhombic cell.
 ALAT       =    12.3557996750
 B/A-ratio  =     1.2247365795
 C/A-ratio  =     1.4142023056
  
  Lattice vectors:
  
 A1 = (   0.0000000000,   0.0000000000,  12.3557996750)
 A2 = (  15.1325998306,   0.0000000000,   0.0000000000)
 A3 = (   0.0000000000,  17.4736003876,   0.0000000000)


Analysis of symmetry for initial positions (statically):
=====================================================================
 Subroutine PRICEL returns:
 Original cell was already a primitive cell.
 

 Routine SETGRP: Setting up the symmetry group for a 
 simple orthorhombic supercell.


 Subroutine GETGRP returns: Found  2 space group operations
 (whereof  1 operations were pure point group operations)
 out of a pool of  8 trial point group operations.


The static configuration has the point symmetry C_1 .
 The point group associated with its full space group is S_2 .


Analysis of symmetry for dynamics (positions and initial velocities):
=====================================================================
 Subroutine PRICEL returns:
 Original cell was already a primitive cell.
 

 Routine SETGRP: Setting up the symmetry group for a 
 simple orthorhombic supercell.


 Subroutine GETGRP returns: Found  2 space group operations
 (whereof  1 operations were pure point group operations)
 out of a pool of  8 trial point group operations.


The dynamic configuration has the point symmetry C_1 .
 The point group associated with its full space group is S_2 .


Analysis of structural, dynamic, and magnetic symmetry:
=====================================================================
 Subroutine PRICEL returns:
 Original cell was already a primitive cell.
 

 Routine SETGRP: Setting up the symmetry group for a 
 simple orthorhombic supercell.


 Subroutine GETGRP returns: Found  2 space group operations
 (whereof  1 operations were pure point group operations)
 out of a pool of  8 trial point group operations.


The overall configuration has the point symmetry C_1 .
 The point group associated with its full space group is S_2 .


 Subroutine INISYM returns: Found  2 space group operations
 (whereof  1 operations are pure point group operations),
 and found     1 'primitive' translations


----------------------------------------------------------------------------------------

                                     Primitive cell                                     

  volume of cell :    3267.1329

  direct lattice vectors                    reciprocal lattice vectors
    15.132599831  0.000000000  0.000000000     0.066082498  0.000000000  0.000000000
     0.000000000 17.473600388  0.000000000     0.000000000  0.057229190  0.000000000
     0.000000000  0.000000000 12.355799675     0.000000000  0.000000000  0.080933653

  length of vectors
    15.132599831 17.473600388 12.355799675     0.066082498  0.057229190  0.080933653

  position of ions in fractional coordinates (direct lattice)
     0.000005841  0.999967100  0.000001725
     0.000012151  0.999939992  0.500013625
     0.000154086  0.249920927  0.999934619
     0.000300236  0.249850378  0.499966841
     0.999995340  0.499994349  0.999945946
     0.000110991  0.499975252  0.499961223
     0.999859862  0.750034022  0.000003425
     0.999769168  0.750047433  0.500016844
     0.166688244  0.000035807  0.000013689
     0.166686586  0.000144733  0.500024636
     0.166819254  0.250011753  0.000075090
     0.166849585  0.250062360  0.500082064
     0.166602932  0.500072865  0.000173946
     0.165982554  0.500223837  0.500246705
     0.166515118  0.750113952  0.000133145
     0.166275099  0.750294142  0.500118383
     0.333359094  0.000059847  0.000002023
     0.333385712  0.000189305  0.500011570
     0.333461921  0.250085704  0.000073753
     0.333702022  0.250457266  0.500104541
     0.333268137  0.500094486  0.000275055
     0.330805157  0.500796329  0.500816147
     0.333220118  0.750081542  0.000188125
     0.332697503  0.750600319  0.500255229
     0.500005191  0.000019538  0.999982852
     0.500010163  0.000042758  0.500008499
     0.500074252  0.250092441  0.999761309
     0.500554977  0.250493291  0.499960154
     0.500017879  0.499995938  0.000159359
     0.499932579  0.749910964  0.000281639
     0.499641948  0.750049777  0.500227537
     0.666658144  0.999949898  0.999981413
     0.666674559  0.999872946  0.499999191
     0.666789599  0.249947663  0.999715571
     0.667496740  0.249152935  0.499744307
     0.666668272  0.499930007  0.999751763
     0.666602268  0.749888523  0.000086626
     0.666347983  0.749539286  0.500102106
     0.833340575  0.999915729  0.999971542
     0.833368303  0.999770465  0.499997267
     0.833532057  0.249849526  0.999739193
     0.833858849  0.249571349  0.499856484
     0.833387820  0.499914263  0.999726791
     0.834422755  0.499745435  0.499732879
     0.833225883  0.749941240  0.999941644
     0.833093285  0.749725140  0.499977106
     0.083435092  0.124971618  0.999992451
     0.083481202  0.124983048  0.500022150
     0.083461143  0.374990352  0.000029252
     0.083499858  0.374992703  0.500065617
     0.083157177  0.625083441  0.000107476
     0.082929728  0.625180325  0.500099074
     0.083263419  0.875056734  0.000032804
     0.083184461  0.875110939  0.500033157
     0.250078334  0.125046272  0.000029377
     0.250187637  0.125204422  0.500038024
     0.250138765  0.375098608  0.000283271
     0.249933777  0.375266989  0.500250265
     0.249764065  0.625149048  0.000362395
     0.249064601  0.625535986  0.500303587
     0.249951181  0.875085512  0.000083188
     0.249800400  0.875290588  0.500083563
     0.416727843  0.125077611  0.999939076
     0.416899101  0.125274370  0.499994673
     0.416855575  0.375149622  0.000244886
     0.417373843  0.376165707  0.500662861
     0.416549714  0.625047369  0.000322805
     0.414632899  0.626614510  0.500816106
     0.416648158  0.875019219  0.000116409
     0.416534668  0.875139983  0.500121400
     0.583370284  0.125028983  0.999809292
     0.583442876  0.124951893  0.499913683
     0.583403913  0.375008173  0.999737078
     0.583253880  0.624817021  0.000237613
     0.582509795  0.623938934  0.500647444
     0.583307483  0.874938879  0.000100704
     0.583225112  0.874922862  0.500075663
     0.750062633  0.124916264  0.999878617
     0.750290007  0.124628407  0.499913727
     0.750280388  0.374831026  0.999454797
     0.751337663  0.374269368  0.499721174
     0.749884555  0.624890695  0.999754033
     0.749675995  0.624315546  0.499956866
     0.749955112  0.874923998  0.000026611
     0.749850636  0.874759861  0.500037315
     0.916768754  0.124897309  0.999933690
     0.916891802  0.124767873  0.499968454
     0.916885085  0.374886451  0.999730058
     0.917245517  0.374757375  0.499861266
     0.916541795  0.624967570  0.999840865
     0.916513790  0.624973231  0.499930207
     0.916600771  0.874975465  0.000008942
     0.916532701  0.874876646  0.500015333
     0.000142887  0.083223226  0.333315174
     0.000046254  0.083278829  0.833343143
     0.000358325  0.333201470  0.333223020
     0.000111170  0.333267670  0.833282562
     0.999972158  0.583348873  0.333271248
     0.999783383  0.583373450  0.833357790
     0.999891651  0.833337208  0.333326085
     0.999847479  0.833375863  0.833368808
     0.166809131  0.083384986  0.333351670
     0.166713898  0.083377011  0.833363442
     0.166879789  0.333376644  0.333430444
     0.166715953  0.333393434  0.833500914
     0.166413083  0.583505127  0.333467633
     0.166287275  0.583518922  0.833687075
     0.166525047  0.833471225  0.333380975
     0.166496892  0.833488212  0.833446772
     0.333463371  0.083449257  0.333338094
     0.333365227  0.083434270  0.833321577
     0.333652501  0.333597027  0.333594485
     0.333337939  0.333474122  0.833506675
     0.332859990  0.583627146  0.333615411
     0.332704534  0.583678356  0.834095132
     0.333184790  0.833471458  0.333430206
     0.333190853  0.833476254  0.833489099
     0.500096169  0.083339593  0.333278360
     0.500028743  0.083423029  0.833246809
     0.500436839  0.333308842  0.333266928
     0.499992220  0.333608493  0.832768941
     0.499552991  0.582445128  0.334668906
     0.499659255  0.583450793  0.833490020
     0.499920010  0.833299490  0.333455586
     0.499913586  0.833354914  0.833505546
     0.666788264  0.083163325  0.333234257
     0.666679592  0.083320167  0.833243355
     0.667709008  0.332455703  0.332446155
     0.666735225  0.333339750  0.832963460
     0.666861366  0.583001971  0.333253787
     0.666343740  0.583202452  0.832763211
     0.666566774  0.833128513  0.333412841
     0.666578047  0.833272998  0.833400230
     0.833506540  0.083063764  0.333255256
     0.833359693  0.083248560  0.833290279
     0.833960155  0.332955963  0.332965115
     0.833486770  0.333208450  0.833071551
     0.833494672  0.583191637  0.333117590
     0.833101545  0.583230179  0.832972071
     0.833229896  0.833171886  0.333338429
     0.833207696  0.833279047  0.833332090
     0.083563146  0.208281838  0.333333314
     0.083437411  0.208313181  0.833371681
     0.083478187  0.458354804  0.333351629
     0.083242291  0.458381218  0.833447629
     0.083148475  0.708439492  0.333381045
     0.083093059  0.708452068  0.833445120
     0.083345427  0.958359146  0.333341939
     0.083298849  0.958380399  0.833375408
     0.250226879  0.208465314  0.333436599
     0.250064850  0.208416374  0.833425311
     0.249911808  0.458562594  0.333650406
     0.249787595  0.458486230  0.833653810
     0.249711272  0.708564534  0.333495305
     0.249657880  0.708579695  0.833670983
     0.250003308  0.958455908  0.333377810
     0.249970418  0.958453306  0.833400867
     0.416888157  0.208477058  0.333341478
     0.416709713  0.208481314  0.833262966
     0.417370353  0.459154883  0.334665533
     0.416409972  0.458553188  0.833494394
     0.416361457  0.708422991  0.333662483
     0.416422833  0.708482435  0.833647328
     0.416661600  0.958385337  0.333373569
     0.416658065  0.958420149  0.833378248
     0.583585002  0.208172346  0.333161278
     0.583377337  0.208468213  0.832957127
     0.583230701  0.458380156  0.832939885
     0.583194663  0.708044911  0.333592528
     0.583186458  0.708293747  0.833498146
     0.583331380  0.958266679  0.333361689
     0.583320741  0.958331281  0.833371261
     0.750456240  0.207873704  0.333061982
     0.750088485  0.208255742  0.833201768
     0.751328716  0.457909556  0.332434645
     0.749963552  0.458240997  0.833017455
     0.749892653  0.708092316  0.333341426
     0.749816504  0.708244195  0.833278698
     0.749986388  0.958151190  0.333361090
     0.749962858  0.958268164  0.833373274
     0.916987612  0.208090891  0.333208900
     0.916785927  0.208230602  0.833261212
     0.917210760  0.458170301  0.333055336
     0.916665548  0.458278213  0.833218841
     0.916559418  0.708288136  0.333274333
     0.916456464  0.708323481  0.833296110
     0.916670229  0.958202576  0.333350759
     0.916614494  0.958291824  0.833363970
     0.000187329  0.166554416  0.166604004
     0.000120693  0.166584905  0.666676172
     0.000255790  0.416586183  0.166505336
     0.000042630  0.416625547  0.666675228
     0.999889494  0.666683713  0.166620628
     0.999721692  0.666736720  0.666714266
     0.999967130  0.916645055  0.166658429
     0.999891139  0.916678415  0.666693510
     0.166857575  0.166679422  0.166709013
     0.166771977  0.166719249  0.666723167
     0.166826983  0.416718737  0.166804308
     0.166491889  0.416783959  0.666890614
     0.166512611  0.666792328  0.166821058
     0.166198611  0.666940453  0.666931599
     0.166659437  0.916732177  0.166686747
     0.166560772  0.916832542  0.666733584
     0.333485639  0.166750472  0.166712362
     0.333429316  0.166849102  0.666674903
     0.333683098  0.416899694  0.167231666
     0.332915996  0.416936927  0.667036095
     0.333200259  0.666763594  0.166898349
     0.332552130  0.667278348  0.667285840
     0.333325324  0.916731778  0.166726306
     0.333248939  0.916854720  0.666764677
     0.500114378  0.166686226  0.166532621
     0.500107241  0.166824214  0.666521824
     0.500546557  0.416836490  0.167269872
     0.499539880  0.417267331  0.665110561
     0.499929604  0.666352152  0.167246166
     0.499527029  0.666929907  0.667005823
     0.499986175  0.916637680  0.166727341
     0.499928704  0.916722648  0.666742858
     0.666832202  0.166533780  0.166471292
     0.666774530  0.166608634  0.666568796
     0.667481436  0.416239234  0.165528908
     0.666885119  0.416526353  0.666259498
     0.666661644  0.666463190  0.166771251
     0.666426538  0.666545013  0.666608987
     0.666650699  0.916546483  0.166725794
     0.666607224  0.916607145  0.666709399
     0.833573895  0.166446025  0.166484395
     0.833493710  0.166498479  0.666621473
     0.833843234  0.416438539  0.166140158
     0.833558793  0.416498397  0.666513881
     0.833301606  0.666567613  0.166537168
     0.833086952  0.666529042  0.666541423
     0.833312400  0.916551237  0.166695501
     0.833238913  0.916569004  0.666697681
     0.083419943  0.041646605  0.166665180
     0.083364448  0.041693148  0.666695727
     0.083568524  0.291620720  0.166646433
     0.083448657  0.291653502  0.666731298
     0.083322013  0.541708994  0.166697773
     0.082965118  0.541793067  0.666863701
     0.083238914  0.791738832  0.166688887
     0.083097397  0.791805661  0.666745647
     0.250076992  0.041725889  0.166659669
     0.250041187  0.041813497  0.666659379
     0.250242955  0.291762488  0.166812183
     0.250032903  0.291795509  0.666789111
     0.249927072  0.541780902  0.166857467
     0.249076809  0.542035285  0.667293642
     0.249902759  0.791771849  0.166757977
     0.249654372  0.791998292  0.666869261
     0.416709931  0.041705474  0.166637581
     0.416700757  0.041805324  0.666627371
     0.416893591  0.291756070  0.166764661
     0.416714507  0.291890111  0.666602840
     0.416668263  0.541692068  0.166968615
     0.414631939  0.542736277  0.668597337
     0.416600024  0.791653356  0.166834606
     0.416404469  0.791880816  0.666877551
     0.583372185  0.041623939  0.166592844
     0.583358598  0.041674150  0.666630841
     0.583584225  0.291550806  0.166392946
     0.583454641  0.291950945  0.665774918
     0.583428556  0.541177027  0.167260075
     0.582505039  0.541725365  0.665093443
     0.583291835  0.791514356  0.166834356
     0.583183375  0.791659222  0.666781792
     0.750054874  0.041524158  0.166586285
     0.750024879  0.041552883  0.666643875
     0.750450769  0.291336476  0.166141413
     0.750264083  0.291468203  0.666481681
     0.750195287  0.541505913  0.166370072
     0.749683517  0.541401012  0.665793384
     0.749949982  0.791518993  0.166671935
     0.749824887  0.791539079  0.666638323
     0.916739400  0.041537818  0.166621885
     0.916687549  0.041568445  0.666671375
     0.916985704  0.291481911  0.166429058
     0.916875827  0.291511517  0.666560967
     0.916764225  0.541596770  0.166466793
     0.916520830  0.541634168  0.666596585
     0.916579871  0.791630166  0.166633256
     0.916453524  0.791632396  0.666648373
     0.000034487  0.999952080  0.124959634
     0.999987909  0.999973333  0.624993103
     0.000240277  0.249880411  0.124889922
     0.000184861  0.249892987  0.624953997
     0.000091045  0.499951261  0.124887413
     0.999855149  0.499977675  0.624983413
     0.999895925  0.750019313  0.124963361
     0.999770190  0.750050656  0.625001728
     0.166718865  0.000040655  0.124971072
     0.166663130  0.000129903  0.624984283
     0.166876895  0.250008998  0.125038932
     0.166773941  0.250044343  0.625060709
     0.166667811  0.500054266  0.125116201
     0.166122599  0.500162178  0.625279706
     0.166547432  0.750101892  0.125073830
     0.166345747  0.750241603  0.625126142
     0.333370485  0.000064315  0.124961768
     0.333346955  0.000181289  0.624973952
     0.333516839  0.250088284  0.125056344
     0.333440690  0.250240163  0.624993616
     0.333369791  0.500091482  0.125317587
     0.332004627  0.500422923  0.625900397
     0.333244858  0.750076752  0.125133274
     0.332877103  0.750458790  0.625273060
     0.500012572  0.000001198  0.124963781
     0.500001933  0.000065800  0.624973353
     0.500146855  0.250038732  0.124836896
     0.500138650  0.250287568  0.624742514
     0.500102612  0.499952323  0.125395157
     0.499955976  0.749864281  0.125377915
     0.499748311  0.750160148  0.625173764
     0.666675279  0.999912330  0.124956794
     0.666671744  0.999947142  0.624961473
     0.666910511  0.249850044  0.124687714
     0.666971887  0.249909488  0.624672559
     0.666923372  0.499779291  0.124840648
     0.665962991  0.499177596  0.623669509
     0.666623631  0.749851180  0.125072076
     0.666445187  0.749855436  0.624993564
     0.833362895  0.999879173  0.124934175
     0.833330005  0.999876571  0.624957232
     0.833675433  0.249752784  0.124664059
     0.833622041  0.249767945  0.624839737
     0.833545718  0.499846249  0.124681232
     0.833421505  0.499769885  0.624684636
     0.833268463  0.749916120  0.124909731
     0.833106434  0.749867180  0.624898443
     0.083485857  0.124956616  0.124966234
     0.083441685  0.124995271  0.625008957
     0.083549953  0.374959029  0.124977252
     0.083361178  0.374983606  0.625063794
     0.083222166  0.625064839  0.125052480
     0.082975011  0.625131039  0.625112022
     0.083287082  0.875053672  0.124991899
     0.083190449  0.875109275  0.625019868
     0.250125617  0.125053432  0.125002952
     0.250103417  0.125160593  0.624996613
     0.250231768  0.375102300  0.125362971
     0.249838641  0.375140842  0.625217452
     0.249846543  0.625124059  0.125263491
     0.249373158  0.625376546  0.625369927
     0.249973620  0.875083941  0.125044763
     0.249826773  0.875268737  0.625079786
     0.416755297  0.125059481  0.124934812
     0.416766570  0.125203966  0.624922201
     0.416989604  0.375130027  0.125571831
     0.416471978  0.375330508  0.625081255
     0.416598119  0.624992759  0.125371582
     0.415624336  0.625876806  0.625888887
     0.416653752  0.875012334  0.125091687
     0.416545080  0.875169176  0.625100785
     0.583419727  0.124977565  0.124829496
     0.583413303  0.125032989  0.624879456
     0.583674058  0.374881686  0.124845022
     0.583780322  0.375887351  0.623666136
     0.583341093  0.624724016  0.125566101
     0.582896474  0.625023667  0.625068114
     0.583304570  0.874909472  0.125088233
     0.583237144  0.874992908  0.625056682
     0.750142490  0.124856225  0.124845943
     0.750148553  0.124861021  0.624904836
     0.750628809  0.374654123  0.124239910
     0.750473353  0.374705333  0.624719631
     0.749995404  0.624858387  0.124828367
     0.749680842  0.624735482  0.624740557
     0.749968116  0.874898231  0.125013465
     0.749869972  0.874883244  0.624996948
     0.916836467  0.124844267  0.124888270
     0.916808312  0.124861254  0.624954067
     0.917046084  0.374813557  0.124647967
     0.916920276  0.374827352  0.624867409
     0.916617406  0.624939075  0.124834128
     0.916453570  0.624955865  0.624904598
     0.916619461  0.874955490  0.124971600
     0.916524228  0.874947515  0.624983372
     0.000148875  0.083221562  0.458301855
     0.000069917  0.083275767  0.958302238
     0.000403608  0.333152184  0.458235938
     0.000176159  0.333249068  0.958227566
     0.999833478  0.583339776  0.458269395
     0.999872193  0.583342127  0.958305790
     0.999852134  0.833349431  0.458312862
     0.999898244  0.833360861  0.958342591
     0.166800658  0.083455855  0.458319679
     0.166732588  0.083357036  0.958326100
     0.166819569  0.333359278  0.458404805
     0.166791564  0.333364939  0.958494177
     0.166087842  0.583575104  0.458473746
     0.166448274  0.583446028  0.958604984
     0.166441557  0.833564606  0.458366558
     0.166564605  0.833435170  0.958401352
     0.333482707  0.083572640  0.458297697
     0.333378231  0.083408503  0.958308431
     0.333657348  0.334016963  0.458378146
     0.333448788  0.333441814  0.958581009
     0.331995680  0.584063111  0.458613838
     0.333052955  0.583501453  0.958880245
     0.333043336  0.833704072  0.458421285
     0.333270710  0.833416215  0.958456425
     0.500108201  0.083409639  0.458259349
     0.500025830  0.083393622  0.958234338
     0.500823518  0.334393575  0.457687568
     0.500079433  0.333515488  0.958097429
     0.499929400  0.583324306  0.958597964
     0.499890437  0.833380586  0.458421329
     0.499963029  0.833303496  0.958525750
     0.666798676  0.083192518  0.458213612
     0.666685186  0.083313282  0.958218633
     0.668700445  0.331717999  0.457518906
     0.666783630  0.333285140  0.958012237
     0.665959501  0.582166772  0.457672151
     0.666477769  0.583182857  0.958090156
     0.666434243  0.833058109  0.458340339
     0.666605501  0.833254868  0.958395966
     0.833532913  0.083041913  0.458251449
     0.833382132  0.083246989  0.958251854
     0.834268712  0.332796523  0.458031425
     0.833569248  0.333183461  0.957972647
     0.833399536  0.583065490  0.458084747
     0.833194548  0.583233871  0.958051771
     0.833145676  0.833128057  0.458296988
     0.833254979  0.833286207  0.958305665
     0.083564168  0.208285061  0.458318168
     0.083473474  0.208298472  0.958331617
     0.083222345  0.458357227  0.458373789
     0.083337996  0.458338130  0.958389096
     0.083033100  0.708482101  0.458368171
     0.083179250  0.708411552  0.958400423
     0.083321185  0.958392487  0.458321387
     0.083327495  0.958365379  0.958333317
     0.250240028  0.208607354  0.458357906
     0.250107430  0.208391254  0.958393398
     0.248910558  0.458587044  0.458602133
     0.249945493  0.458418216  0.958608251
     0.249474464  0.708761130  0.458478528
     0.249801256  0.708482953  0.958595849
     0.249965010  0.958562014  0.458337745
     0.249992738  0.958416750  0.958363500
     0.416985361  0.208793208  0.458232906
     0.416731076  0.208443971  0.958248416
     0.416665072  0.458402472  0.958583279
     0.415836604  0.709179544  0.458590705
     0.416543745  0.708384816  0.958619471
     0.416658785  0.958459533  0.458335821
     0.416675200  0.958382581  0.958353629
     0.583691365  0.208282717  0.458107475
     0.583400734  0.208421530  0.958053403
     0.583315434  0.458336541  0.958175683
     0.582778336  0.707839188  0.458374858
     0.583259061  0.708240038  0.958573733
     0.583323150  0.958289721  0.458326513
     0.583328122  0.958312941  0.958352190
     0.750635840  0.207732175  0.458079783
     0.750113225  0.208250952  0.958146917
     0.752528186  0.457536150  0.457518865
     0.750065206  0.458237993  0.958059987
     0.749631321  0.707875213  0.458230471
     0.749871422  0.708246775  0.958261289
     0.749947631  0.958143174  0.458323442
     0.749974249  0.958272632  0.958333019
     0.917058260  0.208038352  0.458216629
     0.916818241  0.208218542  0.958201897
     0.917350805  0.458108642  0.458088307
     0.916730427  0.458259614  0.958161096
     0.916483774  0.708270119  0.458252948
     0.916514105  0.708320726  0.958259952
     0.916646773  0.958187746  0.458310376
     0.916645115  0.958296672  0.958321353
     0.000235939  0.166529366  0.291584359
     0.000094422  0.166596195  0.791641074
     0.000368218  0.416541975  0.291466305
     0.000011323  0.416626048  0.791632188
     0.999884679  0.666681510  0.291598708
     0.999764812  0.666714292  0.791683528
     0.999968888  0.916641872  0.291634279
     0.999913393  0.916688415  0.791664781
     0.166879835  0.166702631  0.291681633
     0.166753488  0.166704861  0.791696705
     0.166812529  0.416700874  0.291733421
     0.166569134  0.416738272  0.791863168
     0.166457532  0.666823495  0.291769039
     0.166347655  0.666853101  0.791900903
     0.166645810  0.916766575  0.291658631
     0.166593959  0.916797202  0.791708076
     0.333508456  0.166795948  0.291691683
     0.333383361  0.166816034  0.791658026
     0.333649826  0.416934030  0.292536622
     0.333138056  0.416829129  0.791959889
     0.333069260  0.666866809  0.291848325
     0.332882574  0.666998536  0.792188548
     0.333308464  0.916782137  0.291686131
     0.333278469  0.916810862  0.791743676
     0.500149938  0.166675805  0.291548214
     0.500041478  0.166820671  0.791495605
     0.500828274  0.416609677  0.293236563
     0.499904757  0.417158015  0.791069886
     0.499878672  0.666384067  0.292555088
     0.499749088  0.666784206  0.791937015
     0.499974715  0.916660870  0.291699165
     0.499961128  0.916711081  0.791737117
     0.666928875  0.166454211  0.291452455
     0.666733320  0.166681671  0.791495355
     0.668701405  0.415598765  0.289732669
     0.666665081  0.416642974  0.791361346
     0.666618837  0.666444901  0.291727166
     0.666439753  0.666578942  0.791565300
     0.666632587  0.916529696  0.291702635
     0.666623413  0.916629546  0.791692380
     0.833678941  0.166336735  0.291460745
     0.833430554  0.166563178  0.791571984
     0.834256504  0.416299757  0.291036364
     0.833406241  0.416554140  0.791472494
     0.833300410  0.666539503  0.291540895
     0.833090358  0.666572524  0.791517778
     0.833292126  0.916521523  0.291670627
     0.833256321  0.916609131  0.791670292
     0.083442197  0.041656605  0.291636496
     0.083366206  0.041689965  0.791671532
     0.083611644  0.291598292  0.291615740
     0.083443842  0.291651299  0.791709333
     0.083290706  0.541709495  0.291654778
     0.083077546  0.541748859  0.791824625
     0.083212643  0.791750122  0.291653834
     0.083146007  0.791780611  0.791725957
     0.250094400  0.041766016  0.291632325
     0.250020913  0.041783783  0.791634460
     0.250246361  0.291805970  0.291788583
     0.250031707  0.291767399  0.791792793
     0.249774520  0.541836645  0.291816125
     0.249490079  0.541896503  0.792189803
     0.249839603  0.791836548  0.291708533
     0.249759418  0.791889002  0.791845566
     0.416726120  0.041727875  0.291620607
     0.416682645  0.041788537  0.791604167
     0.416906806  0.291789999  0.291721019
     0.416671700  0.291871822  0.791558710
     0.416448225  0.541808689  0.292070508
     0.415851908  0.542095808  0.792801053
     0.416558814  0.791726393  0.291761210
     0.416501142  0.791801247  0.791858669
     0.583404609  0.041612372  0.291587148
     0.583347138  0.041697340  0.791602620
     0.583806284  0.291405105  0.291324183
     0.583403709  0.291982860  0.791083795
     0.583793433  0.541067711  0.293219445
     0.582786756  0.541498552  0.791060089
     0.583226072  0.791510813  0.291808182
     0.583218935  0.791648801  0.791797340
     0.750084404  0.041480300  0.291565329
     0.750008019  0.041603242  0.791603655
     0.750781213  0.291056664  0.291044166
     0.750133084  0.291571418  0.791431612
     0.750417347  0.541398115  0.291293911
     0.749650245  0.541435348  0.791098295
     0.749904027  0.791485925  0.291655103
     0.749847704  0.791584555  0.791617599
[...]
 196      -0.002     0.002     0.003       1.206
 197       0.002    -0.001    -0.003       1.393
 198      -0.003    -0.001     0.004       0.619
 199      -0.007     0.001     0.011       0.803
 200      -0.010    -0.006     0.016       0.213
 201       0.005    -0.004     0.008      -1.153
 202       0.020     0.017     0.056      -0.043
 203      -0.002    -0.001     0.003       0.409
 204      -0.003    -0.000     0.005       0.595
 205      -0.004    -0.002     0.006       0.294
 206      -0.003    -0.003     0.012       0.046
 207      -0.015     0.015    -0.022      -1.370
 208      -0.012     0.009     0.062       0.333
 209       0.004    -0.001     0.025      -0.235
 210       0.007     0.005     0.081      -0.033
 211      -0.003    -0.001     0.005       0.448
 212      -0.003    -0.003     0.007       0.064
 213      -0.008    -0.004     0.009       0.465
 214      -0.011    -0.009     0.012       0.206
 215      -0.015    -0.010     0.057       0.103
 216       0.367     0.357     0.602      -0.017
 217      -0.016     0.015    -0.021      -1.485
 218      -0.012     0.009     0.061       0.358
 219      -0.005    -0.001     0.006       0.557
 220      -0.005    -0.004     0.009       0.193
 221      -0.004    -0.001     0.012       0.283
 222      -0.010     0.008    -0.013      -1.398
 223       0.344     0.339     0.597      -0.009
 224       0.057     0.035     0.169      -0.134
 225      -0.010    -0.007     0.018       0.153
 226       0.006     0.001     0.058      -0.079
 227      -0.004    -0.001     0.006       0.468
 228      -0.004    -0.003     0.008       0.117
 229      -0.005    -0.004     0.005       0.156
 230      -0.005    -0.004     0.007       0.146
 231      -0.014     0.010    -0.021      -1.159
 232       0.020    -0.015    -0.023       1.537
 233      -0.007    -0.004     0.008       0.370
 234      -0.010    -0.007     0.011       0.306
 235      -0.002    -0.001     0.004       0.285
 236      -0.003    -0.001     0.004       0.447
 237       0.002    -0.000    -0.002       0.801
 238       0.002     0.001    -0.003       0.710
 239       0.004    -0.001    -0.005       0.973
 240      -0.004    -0.001     0.008       0.459
 241      -0.006     0.002     0.009       0.939
 242      -0.006    -0.001     0.018       0.279
 243      -0.002     0.000     0.002       0.775
 244       0.003     0.000     0.011      -0.276
 245      -0.002    -0.001     0.003       0.219
 246      -0.003    -0.001     0.005       0.308
 247      -0.006    -0.002     0.008       0.470
 248      -0.002     0.001     0.021       0.147
 249       0.008    -0.002     0.027      -0.361
 250       0.007     0.002     0.079      -0.060
 251      -0.003    -0.001     0.005       0.317
 252      -0.002    -0.001     0.016       0.085
 253      -0.004    -0.001     0.006       0.499
 254      -0.004    -0.003     0.008       0.185
 255      -0.009    -0.007     0.018       0.115
 256       0.010     0.007     0.064      -0.048
 257       0.007    -0.000     0.068      -0.117
 258       0.896     0.856     1.562      -0.026
 259      -0.006    -0.001     0.009       0.497
 260      -0.007    -0.007     0.015       0.021
 261      -0.005    -0.002     0.007       0.499
 262      -0.006    -0.004     0.008       0.249
 263      -0.019    -0.017     0.020       0.109
 264      -0.019    -0.013     0.049       0.117
 265      -0.013    -0.008     0.059       0.086
 266       0.358     0.350     0.592      -0.014
 267      -0.007    -0.003     0.009       0.494
 268      -0.004    -0.003     0.019       0.052
 269      -0.003    -0.001     0.006       0.303
 270      -0.004    -0.003     0.006       0.131
 271      -0.016     0.009    -0.019      -1.328
 272       0.020    -0.015    -0.020       1.736
 273      -0.019    -0.016     0.020       0.156
 274      -0.026    -0.018     0.044       0.181
 275      -0.004    -0.002     0.006       0.312
 276      -0.004    -0.003     0.011       0.091
 277      -0.002    -0.001     0.002       0.519
 278      -0.003    -0.000     0.003       0.719
 279      -0.006    -0.002     0.009       0.430
 280      -0.006    -0.002     0.011       0.423
 281      -0.005     0.002     0.015       0.458
 282       0.010    -0.009    -0.016       1.203
 283      -0.002    -0.001     0.003       0.401
 284      -0.003     0.001     0.005       0.749
 285      -0.002     0.000     0.002       0.799
 286       0.003    -0.000    -0.003       0.853
 287       0.003    -0.000     0.012      -0.234
 288      -0.004    -0.002     0.006       0.348
 289       0.007     0.000    -0.008       0.916
 290       0.002    -0.002     0.024      -0.170
 291       0.002     0.000    -0.002       0.936
 292       0.004    -0.001    -0.005       0.914
 293      -0.001    -0.000     0.003       0.485
 294       0.003    -0.001    -0.003       1.155
 295      -0.003     0.001     0.005       0.797
 296      -0.005    -0.003     0.009       0.290
 297       0.009     0.001    -0.009       0.893
 298      -0.017    -0.013     0.018       0.247
 299       0.003    -0.001    -0.003       1.260
 300      -0.006    -0.004     0.009       0.235
 301      -0.003    -0.001     0.004       0.349
 302      -0.004    -0.003     0.006       0.116
 303      -0.004    -0.000     0.009       0.432
 304      -0.011    -0.010     0.017       0.062
 305      -0.016    -0.008     0.018       0.423
 306      -0.037    -0.027     0.086       0.116
 307      -0.005    -0.001     0.007       0.535
 308      -0.017     0.010    -0.019      -1.448
 309      -0.004    -0.001     0.006       0.576
 310      -0.005    -0.003     0.009       0.165
 311       0.002    -0.002     0.019      -0.213
 312       0.015     0.007     0.059      -0.128
 313       0.014     0.003     0.065      -0.175
 314      -0.005     0.001     0.014       0.448
 315      -0.019    -0.017     0.021       0.090
 316      -0.004    -0.001     0.005       0.520
 317      -0.004    -0.003     0.008       0.115
 318      -0.008    -0.005     0.014       0.179
 319       0.002    -0.002     0.047      -0.086
 320       0.008     0.001     0.056      -0.127
 321       0.358     0.352     0.601      -0.009
 322      -0.004     0.000     0.011       0.413
 323      -0.010    -0.009     0.018       0.055
 324      -0.002    -0.001     0.003       0.165
 325      -0.003    -0.001     0.005       0.330
 326      -0.003    -0.000     0.015       0.212
 327      -0.008    -0.005     0.014       0.187
 328      -0.010    -0.004     0.014       0.406
 329      -0.003     0.003     0.050       0.122
 330      -0.002    -0.001     0.006       0.218
 331      -0.005    -0.003     0.009       0.241
 332       0.002    -0.001     0.003      -0.875
 333       0.002     0.001    -0.003       0.354
 334      -0.006     0.001     0.007       1.000
 335      -0.009    -0.004     0.011       0.433
 336       0.004     0.000    -0.006       0.687
 337      -0.005    -0.002     0.014       0.253
 338       0.002    -0.000    -0.002       1.000
 339       0.003     0.000    -0.004       0.770
 340      -0.001    -0.001     0.003       0.110
 341      -0.004    -0.002     0.006       0.328
 342      -0.008     0.000     0.012       0.655
 343      -0.020    -0.016     0.021       0.188
 344       0.011     0.002     0.023      -0.394
 345       0.019     0.017     0.067      -0.035
 346      -0.002    -0.001     0.003       0.340
 347       0.005    -0.004    -0.005       1.652
 348      -0.003    -0.001     0.006       0.432
 349      -0.006    -0.005     0.011       0.089
 350      -0.017     0.015    -0.022      -1.479
 351       0.046     0.029     0.160      -0.105
 352      -0.014    -0.009     0.018       0.272
 353      -0.048    -0.037     0.074       0.151
 354       0.005    -0.001    -0.005       1.146
 355      -0.006    -0.005     0.010       0.140
 356      -0.004    -0.001     0.007       0.432
 357      -0.007    -0.006     0.013       0.128
 358       0.005    -0.000     0.054      -0.100
 359       0.361     0.354     0.601      -0.012
 360      -0.018     0.015    -0.021      -1.602
 361       0.054     0.037     0.168      -0.103
 362      -0.005    -0.001     0.006       0.732
 363      -0.006    -0.005     0.011       0.133
 364      -0.004    -0.001     0.006       0.408
 365       0.003     0.002     0.018      -0.012
 366       0.072     0.060     0.163      -0.070
 367      -0.016     0.012     0.064       0.443
 368       0.002    -0.001     0.020      -0.147
 369       0.023     0.013     0.064      -0.157
 370      -0.003    -0.001     0.004       0.451
 371      -0.004    -0.003     0.007       0.094
 372      -0.001    -0.000     0.005       0.179
 373      -0.003    -0.001     0.005       0.492
 374      -0.006     0.001     0.016       0.414
 375      -0.011    -0.004     0.016       0.397
 376      -0.005    -0.001     0.006       0.672
 377      -0.007    -0.002     0.014       0.309
 378      -0.001    -0.000     0.002       0.421
 379       0.003    -0.000    -0.004       0.859
 380      -0.003     0.001     0.004       1.058
 381      -0.001     0.000     0.002       0.758
 382      -0.005    -0.003     0.017       0.125
 383      -0.005     0.002     0.005       1.284
 384      -0.001     0.000     0.023       0.049
 385       0.005     0.002    -0.006       0.427
 386       0.003    -0.002     0.004      -1.394
 387       0.000     0.000    -0.001       0.293
 388      -0.003     0.001     0.006       0.620
 389      -0.001    -0.000     0.002       0.465
 390      -0.011     0.010    -0.013      -1.545
 391       0.005     0.002    -0.005       0.520
 392       0.016    -0.014    -0.017       1.786
 393       0.003     0.000    -0.009       0.307
 394       0.004    -0.003    -0.006       1.054
 395       0.001    -0.001    -0.002       1.439
 396      -0.006    -0.004     0.007       0.235
 397      -0.003    -0.000     0.003       0.813
 398      -0.023    -0.017     0.044       0.115
 399       0.008    -0.002    -0.008       1.217
 400      -0.048    -0.029     0.078       0.236
 401       0.054     0.047     0.104      -0.073
 402       0.050     0.049     0.096      -0.011
 403      -0.003     0.002     0.005       0.948
 404      -0.004    -0.003     0.015       0.037
 405       0.004     0.001    -0.005       0.791
 406       0.348     0.340     0.581      -0.013
 407      -0.012    -0.009     0.016       0.206
 408       0.016    -0.015    -0.017       1.812
 409      -0.012     0.011    -0.013      -1.772
 410       0.005     0.002    -0.005       0.548
 411      -0.001    -0.000     0.017       0.058
 412      -0.004     0.001     0.004       1.173
 413       0.900     0.863     1.560      -0.024
 414       0.008     0.003     0.029      -0.200
 415       0.356     0.348     0.593      -0.015
 416      -0.012    -0.008     0.016       0.239
 417      -0.006    -0.005     0.015       0.030
 418       0.003     0.001    -0.005       0.521
 419       0.009     0.006     0.027      -0.114
 420      -0.002    -0.000     0.002       0.662
 421       0.008     0.006     0.081      -0.019
 422       0.009    -0.001     0.025      -0.415
 423       0.002    -0.002     0.050      -0.089
 424       0.005     0.000    -0.008       0.519
 425       0.006    -0.003    -0.006       1.546
 426       0.002    -0.000    -0.002       1.144
 427       0.002    -0.002     0.008      -0.489
 428      -0.001     0.001     0.003       0.319
 429       0.121     0.112     0.145      -0.063
 430      -0.006     0.003     0.007       1.404
 431      -0.004    -0.001     0.009       0.301
 432       0.002     0.000    -0.003       0.658
 433       0.003     0.000    -0.004       0.659
 434      -0.001    -0.000     0.002       0.569
 435      -0.007    -0.004     0.012       0.249
 436       0.002     0.001    -0.003       0.548
 437       0.430     0.426     0.648      -0.006
 438       0.008     0.000    -0.010       0.781
 439      -0.017     0.009    -0.019      -1.388
 440       0.002    -0.001    -0.006       0.522
 441       0.007     0.005     0.019      -0.104
 442      -0.002    -0.001     0.003       0.281
 443      -0.018     0.014    -0.020      -1.625
 444       0.004     0.001    -0.006       0.548
 445       0.016    -0.014    -0.018       1.651
 446       0.365     0.364     0.607      -0.003
 447       0.008    -0.001    -0.008       1.135
 448      -0.005    -0.004     0.009       0.018
 449      -0.004    -0.000     0.004       0.767
 450      -0.005    -0.001     0.046       0.086
 451       0.005     0.000    -0.008       0.607
 452      -0.018    -0.014     0.023       0.188
 453      -0.018    -0.013     0.049       0.099
 454       0.007    -0.002    -0.009       1.094
 455      -0.006    -0.005     0.009       0.059
 456      -0.004    -0.000     0.005       0.871
 457       0.079     0.074     0.171      -0.033
 458       0.004     0.001    -0.005       0.490
 459       0.973     0.931     1.603      -0.026
 460       0.011     0.002     0.030      -0.297
 461      -0.017     0.014    -0.019      -1.630
 462       0.004     0.000    -0.005       0.620
 463      -0.002    -0.001     0.009       0.113
 464      -0.003    -0.001     0.004       0.629
 465      -0.003    -0.001     0.015       0.149
 466      -0.002     0.001     0.003       0.919
 467       0.151     0.140     0.218      -0.050
 468       0.005     0.004    -0.008       0.127
 469      -0.004    -0.000     0.011       0.327
 470       0.002     0.001    -0.003       0.351
 471       0.002    -0.002     0.006      -0.598
 472      -0.001    -0.001     0.002       0.172
 473       0.003     0.000     0.011      -0.276
 474      -0.002     0.000     0.002       0.775
 475      -0.006    -0.001     0.018       0.279
 476      -0.006     0.002     0.009       0.939
 477      -0.004    -0.001     0.008       0.459
 478       0.004    -0.001    -0.005       0.973
 479       0.002     0.001    -0.003       0.710
 480       0.002    -0.000    -0.002       0.801
 481      -0.003     0.001     0.005       0.749
 482      -0.002    -0.001     0.003       0.401
 483       0.010    -0.009    -0.016       1.203
 484      -0.005     0.002     0.015       0.458
 485      -0.006    -0.002     0.011       0.423
 486      -0.006    -0.002     0.009       0.430
 487      -0.003    -0.000     0.003       0.719
 488      -0.002    -0.001     0.002       0.519
 489      -0.004    -0.003     0.011       0.091
 490      -0.004    -0.002     0.006       0.312
 491      -0.026    -0.018     0.044       0.181
 492      -0.019    -0.016     0.020       0.156
 493       0.020    -0.015    -0.020       1.736
 494      -0.016     0.009    -0.019      -1.328
 495      -0.004    -0.003     0.006       0.131
 496      -0.003    -0.001     0.006       0.303
 497      -0.004    -0.003     0.019       0.052
 498      -0.007    -0.003     0.009       0.494
 499       0.358     0.350     0.592      -0.014
 500      -0.013    -0.008     0.059       0.086
 501      -0.019    -0.013     0.049       0.117
 502      -0.019    -0.017     0.020       0.109
 503      -0.006    -0.004     0.008       0.249
 504      -0.005    -0.002     0.007       0.499
 505      -0.007    -0.007     0.015       0.021
 506      -0.006    -0.001     0.009       0.497
 507       0.896     0.856     1.562      -0.026
 508       0.007    -0.000     0.068      -0.117
 509       0.010     0.007     0.064      -0.048
 510      -0.009    -0.007     0.018       0.115
 511      -0.004    -0.003     0.008       0.185
 512      -0.004    -0.001     0.006       0.499
 513      -0.002    -0.001     0.016       0.085
 514      -0.003    -0.001     0.005       0.317
 515       0.007     0.002     0.079      -0.060
 516       0.008    -0.002     0.027      -0.361
 517      -0.002     0.001     0.021       0.147
 518      -0.006    -0.002     0.008       0.470
 519      -0.003    -0.001     0.005       0.308
 520      -0.002    -0.001     0.003       0.219
 521      -0.002     0.002     0.003       1.206
 522       0.002    -0.000    -0.002       0.929
 523       0.003    -0.002     0.013      -0.381
 524      -0.004    -0.000     0.005       0.695
 525      -0.010    -0.004     0.011       0.544
 526       0.008    -0.001    -0.008       1.098
 527      -0.003    -0.000     0.003       0.933
 528       0.002    -0.001    -0.003       0.973
 529      -0.003    -0.001     0.004       0.447
 530      -0.002    -0.001     0.004       0.285
 531      -0.010    -0.007     0.011       0.306
 532      -0.007    -0.004     0.008       0.370
 533       0.020    -0.015    -0.023       1.537
 534      -0.014     0.010    -0.021      -1.159
 535      -0.005    -0.004     0.007       0.146
 536      -0.005    -0.004     0.005       0.156
 537      -0.004    -0.003     0.008       0.117
 538      -0.004    -0.001     0.006       0.468
 539       0.006     0.001     0.058      -0.079
 540      -0.010    -0.007     0.018       0.153
 541       0.057     0.035     0.169      -0.134
 542       0.344     0.339     0.597      -0.009
 543      -0.010     0.008    -0.013      -1.398
 544      -0.004    -0.001     0.012       0.283
 545      -0.005    -0.004     0.009       0.193
 546      -0.005    -0.001     0.006       0.557
 547      -0.012     0.009     0.061       0.358
 548      -0.016     0.015    -0.021      -1.485
 549       0.367     0.357     0.602      -0.017
 550      -0.015    -0.010     0.057       0.103
 551      -0.011    -0.009     0.012       0.206
 552      -0.008    -0.004     0.009       0.465
 553      -0.003    -0.003     0.007       0.064
 554      -0.003    -0.001     0.005       0.448
 555       0.007     0.005     0.081      -0.033
 556       0.004    -0.001     0.025      -0.235
 557      -0.012     0.009     0.062       0.333
 558      -0.015     0.015    -0.022      -1.370
 559      -0.003    -0.003     0.012       0.046
 560      -0.004    -0.002     0.006       0.294
 561      -0.003    -0.000     0.005       0.595
 562      -0.002    -0.001     0.003       0.409
 563       0.020     0.017     0.056      -0.043
 564       0.005    -0.004     0.008      -1.153
 565      -0.010    -0.006     0.016       0.213
 566      -0.007     0.001     0.011       0.803
 567      -0.003    -0.001     0.004       0.619
 568       0.002    -0.001    -0.003       1.393
 569      24.884    24.881    48.325      -0.000
 570      24.884    24.881    48.325      -0.000
 571      -1.006    -0.660    -1.141      -0.304
 572      -0.997    -0.646    -1.134      -0.310
 573      -1.002    -0.646    -1.140      -0.312
 574      -1.002    -0.646    -1.141      -0.312
 575      -0.997    -0.646    -1.134      -0.310
 576      -1.006    -0.660    -1.141      -0.304
 ---------------------------------------------------------------------



--------------------------------------------------------------------------------------------------------


     LOOP+:  cpu time  723.8033: real time  725.9587
    4ORBIT:  cpu time    0.0000: real time    0.0000

 total amount of memory used by VASP MPI-rank0   135651. kBytes
=======================================================================

   base      :      30000. kBytes
   nonlr-proj:       4919. kBytes
   fftplans  :       8132. kBytes
   grid      :      24015. kBytes
   one-center:        147. kBytes
   wavefun   :      68438. kBytes
 
  
  
 General timing and accounting informations for this job:
 ========================================================
  
                  Total CPU time used (sec):      745.098
                            User time (sec):      742.623
                          System time (sec):        2.475
                         Elapsed time (sec):      747.822
  
                   Maximum memory used (kb):      304544.
                   Average memory used (kb):          N/A
  
                          Minor page faults:       289870
                          Major page faults:            2
                 Voluntary context switches:         6706
