 vasp.6.2.0 18Jan21 (build Apr 30 2021 19:00:08) gamma-only                     
  
 executed on             LinuxIFC date 2022.11.10  11:48:15
 running on   48 total cores
 distrk:  each k-point on   48 cores,    1 groups
 distr:  one band on NCORE=  12 cores,    4 groups


--------------------------------------------------------------------------------------------------------


 INCAR:
   SYSTEM = Diamond
   PREC = Normal
   ISTART = 0
   ICHARG = 11
   ISPIN = 2
   MAGMOM = 568*0.0 2*1.0 6*1.0
   NPAR = 4
   NELECT = 2305
   LHYPERFINE = T
   LEFG = T
   ENCUT = 700
   NELM = 1000
   NELMIN = 4
   EDIFF = 1E-06
   LREAL = Auto
   ALGO = Normal
   EDIFFG = -1E-02
   NSW = 0
   IBRION = 2
   ISIF = 2
   ISYM = 2
   POTIM = 0.5
   ISMEAR = 0
   SIGMA = 0.05
   NEDOS = 1000
   LWAVE = F
   LCHARG = F
   LVHAR = F
   LELF = F

 POTCAR:    PAW_PBE C 08Apr2002                   
 POTCAR:    PAW_PBE N 08Apr2002                   
 POTCAR:    PAW_PBE C 08Apr2002                   
 POTCAR:    PAW_PBE C 08Apr2002                   
   VRHFIN =C: s2p2                                                                                  
   LEXCH  = PE                                                                                      
   EATOM  =   147.1560 eV,   10.8157 Ry                                                             
                                                                                                    
   TITEL  = PAW_PBE C 08Apr2002                                                                     
   LULTRA =        F    use ultrasoft PP ?                                                          
   IUNSCR =        1    unscreen: 0-lin 1-nonlin 2-no                                               
   RPACOR =    1.200    partial core radius                                                         
   POMASS =   12.011; ZVAL   =    4.000    mass and valenz                                          
   RCORE  =    1.500    outmost cutoff radius                                                       
   RWIGS  =    1.630; RWIGS  =    0.863    wigner-seitz radius (au A)                               
   ENMAX  =  400.000; ENMIN  =  300.000 eV                                                          
   ICORE  =        2    local potential                                                             
   LCOR   =        T    correct aug charges                                                         
   LPAW   =        T    paw PP                                                                      
   EAUG   =  644.873                                                                                
   DEXC   =    0.000                                                                                
   RMAX   =    1.529    core radius for proj-oper                                                   
   RAUG   =    1.300    factor for augmentation sphere                                              
   RDEP   =    1.501    radius for radial grids                                                     
   RDEPT  =    1.300    core radius for aug-charge                                                  
                                                                                                    
   Atomic configuration                                                                             
    4 entries                                                                                       
     n  l   j            E        occ.                                                              
     1  0  0.50      -273.3789   2.0000                                                             
     2  0  0.50       -13.7508   2.0000                                                             
     2  1  0.50        -5.2854   2.0000                                                             
     3  2  1.50        -5.4423   0.0000                                                             
   Description                                                                                      
     l       E           TYP  RCUT    TYP  RCUT                                                     
     0    -13.7508458     23  1.200                                                                 
     0     -8.2022199     23  1.200                                                                 
     1     -5.2854383     23  1.500                                                                 
     1     34.0145650     23  1.500                                                                 
     2     -5.4423304      7  1.500                                                                 
  local pseudopotential read in
  partial core-charges read in
  partial kinetic energy density read in
  atomic valenz-charges read in
  non local Contribution for L=           0  read in
    real space projection operators read in
  non local Contribution for L=           0  read in
    real space projection operators read in
  non local Contribution for L=           1  read in
    real space projection operators read in
  non local Contribution for L=           1  read in
    real space projection operators read in
    PAW grid and wavefunctions read in
 
   number of l-projection  operators is LMAX  =           4
   number of lm-projection operators is LMMAX =           8
 
 POTCAR:    PAW_PBE N 08Apr2002                   
   VRHFIN =N: s2p3                                                                                  
   LEXCH  = PE                                                                                      
   EATOM  =   264.5486 eV,   19.4438 Ry                                                             
                                                                                                    
   TITEL  = PAW_PBE N 08Apr2002                                                                     
   LULTRA =        F    use ultrasoft PP ?                                                          
   IUNSCR =        1    unscreen: 0-lin 1-nonlin 2-no                                               
   RPACOR =    1.200    partial core radius                                                         
   POMASS =   14.001; ZVAL   =    5.000    mass and valenz                                          
   RCORE  =    1.500    outmost cutoff radius                                                       
   RWIGS  =    1.400; RWIGS  =    0.741    wigner-seitz radius (au A)                               
   ENMAX  =  400.000; ENMIN  =  300.000 eV                                                          
   ICORE  =        2    local potential                                                             
   LCOR   =        T    correct aug charges                                                         
   LPAW   =        T    paw PP                                                                      
   EAUG   =  627.112                                                                                
   DEXC   =    0.000                                                                                
   RMAX   =    1.529    core radius for proj-oper                                                   
   RAUG   =    1.300    factor for augmentation sphere                                              
   RDEP   =    1.514    radius for radial grids                                                     
   RDEPT  =    1.338    core radius for aug-charge                                                  
                                                                                                    
   Atomic configuration                                                                             
    4 entries                                                                                       
     n  l   j            E        occ.                                                              
     1  0  0.50      -384.7179   2.0000                                                             
     2  0  0.50       -18.5828   2.0000                                                             
     2  1  0.50        -7.0898   3.0000                                                             
     3  2  1.50        -6.8029   0.0000                                                             
   Description                                                                                      
     l       E           TYP  RCUT    TYP  RCUT                                                     
     0    -18.5828119     23  1.200                                                                 
     0    -13.5018863     23  1.200                                                                 
     1     -7.0897853     23  1.500                                                                 
     1      9.5240782     23  1.500                                                                 
     2     -6.8029130      7  1.500                                                                 
  local pseudopotential read in
  partial core-charges read in
  partial kinetic energy density read in
  atomic valenz-charges read in
  non local Contribution for L=           0  read in
    real space projection operators read in
  non local Contribution for L=           0  read in
    real space projection operators read in
  non local Contribution for L=           1  read in
    real space projection operators read in
  non local Contribution for L=           1  read in
    real space projection operators read in
    PAW grid and wavefunctions read in
 
   number of l-projection  operators is LMAX  =           4
   number of lm-projection operators is LMMAX =           8
 
 POTCAR:    PAW_PBE C 08Apr2002                   
   VRHFIN =C: s2p2                                                                                  
   LEXCH  = PE                                                                                      
   EATOM  =   147.1560 eV,   10.8157 Ry                                                             
                                                                                                    
   TITEL  = PAW_PBE C 08Apr2002                                                                     
   LULTRA =        F    use ultrasoft PP ?                                                          
   IUNSCR =        1    unscreen: 0-lin 1-nonlin 2-no                                               
   RPACOR =    1.200    partial core radius                                                         
   POMASS =   12.011; ZVAL   =    4.000    mass and valenz                                          
   RCORE  =    1.500    outmost cutoff radius                                                       
   RWIGS  =    1.630; RWIGS  =    0.863    wigner-seitz radius (au A)                               
   ENMAX  =  400.000; ENMIN  =  300.000 eV                                                          
   ICORE  =        2    local potential                                                             
   LCOR   =        T    correct aug charges                                                         
   LPAW   =        T    paw PP                                                                      
   EAUG   =  644.873                                                                                
   DEXC   =    0.000                                                                                
   RMAX   =    1.529    core radius for proj-oper                                                   
   RAUG   =    1.300    factor for augmentation sphere                                              
   RDEP   =    1.501    radius for radial grids                                                     
   RDEPT  =    1.300    core radius for aug-charge                                                  
                                                                                                    
   Atomic configuration                                                                             
    4 entries                                                                                       
     n  l   j            E        occ.                                                              
     1  0  0.50      -273.3789   2.0000                                                             
     2  0  0.50       -13.7508   2.0000                                                             
     2  1  0.50        -5.2854   2.0000                                                             
     3  2  1.50        -5.4423   0.0000                                                             
   Description                                                                                      
     l       E           TYP  RCUT    TYP  RCUT                                                     
     0    -13.7508458     23  1.200                                                                 
     0     -8.2022199     23  1.200                                                                 
     1     -5.2854383     23  1.500                                                                 
     1     34.0145650     23  1.500                                                                 
     2     -5.4423304      7  1.500                                                                 
  local pseudopotential read in
  partial core-charges read in
  partial kinetic energy density read in
  atomic valenz-charges read in
  non local Contribution for L=           0  read in
    real space projection operators read in
  non local Contribution for L=           0  read in
    real space projection operators read in
  non local Contribution for L=           1  read in
    real space projection operators read in
  non local Contribution for L=           1  read in
    real space projection operators read in
    PAW grid and wavefunctions read in
 
   number of l-projection  operators is LMAX  =           4
   number of lm-projection operators is LMMAX =           8
 
 Optimization of the real space projectors (new method)

 maximal supplied QI-value         = 25.13
 optimisation between [QCUT,QGAM] = [ 13.32, 26.89] = [ 49.69,202.52] Ry 
 Optimized for a Real-space Cutoff    1.01 Angstroem

   l    n(q)    QCUT    max X(q) W(low)/X(q) W(high)/X(q)  e(spline) 
   0      8    13.321   115.676    0.29E-03    0.42E-03    0.11E-06
   0      8    13.321    87.132    0.29E-03    0.42E-03    0.11E-06
   1      8    13.321     4.429    0.39E-03    0.33E-03    0.98E-07
   1      8    13.321     2.733    0.30E-03    0.26E-03    0.97E-07
 Optimization of the real space projectors (new method)

 maximal supplied QI-value         = 25.13
 optimisation between [QCUT,QGAM] = [ 13.32, 26.89] = [ 49.69,202.52] Ry 
 Optimized for a Real-space Cutoff    1.01 Angstroem

   l    n(q)    QCUT    max X(q) W(low)/X(q) W(high)/X(q)  e(spline) 
   0      8    13.321    79.467    0.28E-03    0.38E-03    0.11E-06
   0      8    13.321    66.151    0.27E-03    0.38E-03    0.11E-06
   1      8    13.321    23.070    0.40E-03    0.78E-03    0.29E-06
   1      8    13.321    16.668    0.40E-03    0.79E-03    0.30E-06
 Optimization of the real space projectors (new method)

 maximal supplied QI-value         = 25.13
 optimisation between [QCUT,QGAM] = [ 13.32, 26.89] = [ 49.69,202.52] Ry 
 Optimized for a Real-space Cutoff    1.01 Angstroem

   l    n(q)    QCUT    max X(q) W(low)/X(q) W(high)/X(q)  e(spline) 
   0      8    13.321   115.676    0.29E-03    0.42E-03    0.11E-06
   0      8    13.321    87.132    0.29E-03    0.42E-03    0.11E-06
   1      8    13.321     4.429    0.39E-03    0.33E-03    0.98E-07
   1      8    13.321     2.733    0.30E-03    0.26E-03    0.97E-07
  PAW_PBE C 08Apr2002                   :
 energy of atom  1       EATOM= -147.1560
 kinetic energy error for atom=    0.0032 (will be added to EATOM!!)
  PAW_PBE N 08Apr2002                   :
 energy of atom  2       EATOM= -264.5486
 kinetic energy error for atom=    0.0061 (will be added to EATOM!!)
  PAW_PBE C 08Apr2002                   :
 energy of atom  3       EATOM= -147.1560
 kinetic energy error for atom=    0.0032 (will be added to EATOM!!)
 
 
 POSCAR: Autosave
  positions in direct lattice
  velocities in cartesian coordinates
 exchange correlation table for  LEXCH =        8
   RHO(1)=    0.500       N(1)  =     2000
   RHO(2)=  100.500       N(2)  =     4000
 


--------------------------------------------------------------------------------------------------------


 ion  position               nearest neighbor table
   1  1.000  1.000  0.000- 472 1.54 285 1.54 381 1.54 434 1.54
   2  1.000  1.000  0.500- 471 1.54 380 1.54 286 1.54 433 1.55
   3  1.000  0.250  1.000- 466 1.54 287 1.54 383 1.54 428 1.55
   4  1.000  0.250  0.500- 465 1.54 382 1.54 288 1.54 427 1.54
   5  0.000  0.500  1.000- 289 1.54 468 1.54 385 1.54 430 1.54
   6  1.000  0.500  0.500- 429 1.54 467 1.54 290 1.54 384 1.55
   7  0.000  0.750  0.000- 470 1.54 291 1.54 387 1.54 432 1.55
   8  0.000  0.750  0.500- 469 1.54 386 1.54 292 1.54 431 1.55
   9  0.167  1.000  1.000- 434 1.54 293 1.54 442 1.54 389 1.54
  10  0.167  1.000  0.500- 433 1.54 388 1.54 294 1.54 441 1.55
  11  0.166  0.250  1.000- 428 1.54 295 1.54 436 1.54 391 1.54
  12  0.166  0.250  0.500- 427 1.54 390 1.54 296 1.54 435 1.54
  13  0.167  0.500  1.000- 297 1.54 430 1.54 393 1.54 438 1.54
  14  0.166  0.500  0.500- 437 1.53 429 1.54 298 1.54 392 1.54
  15  0.167  0.750  1.000- 432 1.54 299 1.54 395 1.54 440 1.55
  16  0.167  0.750  0.500- 300 1.54 431 1.54 394 1.55 439 1.55
  17  0.333  1.000  1.000- 449 1.54 301 1.54 442 1.54 397 1.55
  18  0.333  1.000  0.500- 302 1.54 448 1.54 441 1.54 396 1.54
  19  0.333  0.250  1.000- 444 1.54 303 1.54 436 1.54 399 1.54
  20  0.333  0.249  0.500- 398 1.53 435 1.54 304 1.54 443 1.54
  21  0.333  0.500  1.000- 401 1.54 445 1.54 438 1.55 305 1.55
  22  0.333  0.750  0.000- 447 1.54 440 1.54 307 1.54 403 1.55
  23  0.334  0.750  0.500- 308 1.54 439 1.54 446 1.55 402 1.55
  24  0.500  0.000  1.000- 456 1.54 309 1.54 449 1.54 405 1.55
  25  0.500  0.000  0.500- 455 1.54 310 1.54 448 1.54 404 1.55
  26  0.500  0.250  1.000- 451 1.54 444 1.54 311 1.55 407 1.55
  27  0.499  0.250  0.500- 312 1.54 443 1.55 450 1.55 406 1.56
  28  0.500  0.500  0.000- 452 1.54 408 1.54 445 1.55 313 1.55
  29  0.500  0.750  0.000- 454 1.54 447 1.54 314 1.55 410 1.55
  30  0.500  0.750  0.500- 453 1.54 315 1.54 409 1.55 446 1.55
  31  0.667  0.000  0.000- 316 1.54 456 1.54 464 1.54 412 1.54
  32  0.667  0.000  0.500- 317 1.54 455 1.54 463 1.55 411 1.55
  33  0.667  0.250  0.000- 451 1.54 414 1.54 318 1.54 458 1.55
  34  0.666  0.250  0.500- 319 1.54 450 1.54 457 1.55 413 1.55
  35  0.667  0.500  0.000- 460 1.54 416 1.54 320 1.55 452 1.55
  36  0.669  0.501  0.501- 459 1.53 576 1.53 321 1.55 415 1.55
  37  0.667  0.750  0.000- 322 1.54 454 1.54 462 1.54 418 1.54
  38  0.667  0.751  0.500- 453 1.54 417 1.54 323 1.54 461 1.54
  39  0.833  0.000  0.000- 464 1.54 324 1.54 420 1.54 472 1.54
  40  0.833  0.000  0.500- 463 1.54 325 1.54 419 1.54 471 1.55
  41  0.833  0.250  0.000- 458 1.54 326 1.54 422 1.54 466 1.55
  42  0.833  0.250  0.500- 457 1.54 421 1.54 327 1.54 465 1.55
  43  0.833  0.500  0.000- 328 1.54 460 1.54 468 1.54 424 1.54
  44  0.834  0.500  0.500- 459 1.54 467 1.54 329 1.54 423 1.55
  45  0.833  0.750  0.000- 462 1.54 330 1.54 426 1.54 470 1.55
  46  0.834  0.750  0.500- 461 1.54 425 1.54 331 1.54 469 1.54
  47  0.083  0.125  1.000- 381 1.54 332 1.54 428 1.54 389 1.55
  48  0.083  0.125  0.500- 380 1.54 427 1.54 333 1.54 388 1.55
  49  0.083  0.375  1.000- 383 1.54 334 1.54 430 1.54 391 1.54
  50  0.083  0.375  0.500- 382 1.54 390 1.54 335 1.54 429 1.55
  51  0.083  0.625  1.000- 385 1.54 336 1.54 432 1.54 393 1.55
  52  0.083  0.625  0.500- 431 1.54 384 1.54 337 1.54 392 1.54
  53  0.083  0.875  0.000- 387 1.54 338 1.54 434 1.54 395 1.54
  54  0.083  0.875  0.500- 386 1.54 339 1.54 433 1.54 394 1.55
  55  0.250  0.125  1.000- 340 1.54 389 1.54 397 1.54 436 1.54
  56  0.250  0.125  0.500- 435 1.54 388 1.54 341 1.54 396 1.54
  57  0.250  0.375  0.999- 342 1.54 391 1.54 438 1.54 399 1.54
  58  0.249  0.374  0.500- 390 1.54 343 1.54 398 1.55 437 1.55
  59  0.250  0.625  1.000- 440 1.54 393 1.54 344 1.55 401 1.55
  60  0.250  0.624  0.500- 345 1.54 392 1.55 439 1.55 400 1.56
  61  0.250  0.875  0.000- 395 1.54 346 1.54 403 1.54 442 1.54
  62  0.250  0.875  0.500- 347 1.54 394 1.54 441 1.55 402 1.55
  63  0.417  0.125  1.000- 405 1.54 397 1.54 348 1.54 444 1.55
  64  0.417  0.125  0.500- 404 1.54 349 1.54 443 1.55 396 1.55
  65  0.417  0.375  1.000- 407 1.54 445 1.54 399 1.55 350 1.55
  66  0.417  0.625  0.000- 408 1.54 401 1.54 447 1.55 352 1.55
  67  0.417  0.624  0.501- 353 1.54 575 1.55 400 1.55 446 1.56
  68  0.417  0.875  0.000- 410 1.54 354 1.54 403 1.54 449 1.55
  69  0.417  0.875  0.500- 409 1.54 355 1.54 402 1.54 448 1.55
  70  0.583  0.125  1.000- 405 1.54 356 1.54 412 1.54 451 1.55
  71  0.583  0.125  0.500- 357 1.54 404 1.54 411 1.55 450 1.55
  72  0.583  0.375  0.000- 452 1.54 407 1.54 414 1.55 358 1.55
  73  0.583  0.376  0.501- 359 1.54 576 1.55 406 1.55 413 1.56
  74  0.583  0.625  0.000- 416 1.54 454 1.54 360 1.55 408 1.55
  75  0.585  0.627  0.501- 453 1.53 575 1.54 415 1.55 361 1.55
  76  0.583  0.875  0.000- 362 1.54 410 1.54 418 1.54 456 1.55
  77  0.583  0.875  0.500- 363 1.54 417 1.54 455 1.54 409 1.55
  78  0.750  0.125  0.000- 412 1.54 364 1.54 458 1.54 420 1.54
  79  0.750  0.125  0.500- 365 1.54 411 1.54 457 1.55 419 1.55
  80  0.750  0.375  0.000- 414 1.54 460 1.54 366 1.55 422 1.55
  81  0.750  0.375  0.500- 367 1.54 459 1.54 421 1.54 413 1.55
  82  0.750  0.625  0.000- 416 1.54 368 1.54 462 1.54 424 1.54
  83  0.751  0.626  0.500- 415 1.54 423 1.54 461 1.54 369 1.55
  84  0.750  0.875  0.000- 370 1.54 418 1.54 464 1.54 426 1.55
  85  0.750  0.875  0.500- 417 1.54 463 1.54 371 1.54 425 1.55
  86  0.917  0.125  1.000- 420 1.54 372 1.54 466 1.54 381 1.55
  87  0.917  0.125  0.500- 419 1.54 465 1.54 373 1.54 380 1.55
  88  0.917  0.375  0.000- 422 1.54 374 1.54 468 1.54 383 1.55
  89  0.917  0.375  0.500- 382 1.54 421 1.54 375 1.54 467 1.55
  90  0.917  0.625  0.000- 424 1.54 376 1.54 470 1.54 385 1.55
  91  0.917  0.625  0.500- 423 1.54 384 1.54 469 1.54 377 1.54
  92  0.917  0.875  0.000- 426 1.54 378 1.54 472 1.54 387 1.55
  93  0.917  0.875  0.500- 425 1.54 471 1.54 379 1.54 386 1.55
  94  1.000  0.083  0.333- 561 1.54 473 1.54 380 1.54 521 1.55
  95  1.000  0.083  0.833- 562 1.54 381 1.54 474 1.54 522 1.55
  96  1.000  0.333  0.333- 563 1.54 382 1.54 523 1.54 475 1.54
  97  1.000  0.333  0.833- 564 1.54 383 1.54 476 1.54 524 1.54
  98  0.000  0.583  0.333- 525 1.54 565 1.54 384 1.54 477 1.54
  99  0.000  0.583  0.833- 566 1.54 385 1.54 478 1.54 526 1.55
 100  0.000  0.833  0.333- 567 1.54 479 1.54 386 1.54 527 1.55
 101  0.000  0.833  0.833- 568 1.54 387 1.54 480 1.54 528 1.55
 102  0.166  0.083  0.333- 521 1.54 481 1.54 388 1.54 529 1.54
 103  0.167  0.083  0.833- 522 1.54 389 1.54 482 1.54 530 1.54
 104  0.166  0.333  0.333- 523 1.54 390 1.55 531 1.55 483 1.55
 105  0.167  0.333  0.833- 391 1.54 524 1.54 532 1.54 484 1.54
 106  0.167  0.583  0.333- 533 1.54 392 1.54 485 1.54 525 1.54
 107  0.167  0.583  0.833- 486 1.54 526 1.54 393 1.55 534 1.55
 108  0.167  0.833  0.333- 527 1.54 394 1.54 535 1.54 487 1.54
 109  0.167  0.833  0.833- 528 1.54 395 1.54 488 1.54 536 1.55
 110  0.333  0.083  0.333- 537 1.54 529 1.54 396 1.54 489 1.54
 111  0.333  0.083  0.833- 538 1.54 397 1.54 530 1.54 490 1.55
 112  0.332  0.332  0.332- 531 1.54 539 1.54 398 1.55 491 1.55
 113  0.333  0.333  0.833- 540 1.54 492 1.54 399 1.55 532 1.55
 114  0.333  0.583  0.333- 541 1.54 400 1.54 493 1.55 533 1.55
 115  0.334  0.583  0.833- 494 1.54 534 1.54 542 1.55 401 1.55
 116  0.333  0.833  0.333- 402 1.54 543 1.54 535 1.54 495 1.55
 117  0.333  0.833  0.833- 544 1.54 536 1.54 403 1.54 496 1.55
 118  0.500  0.083  0.333- 404 1.54 545 1.54 537 1.54 497 1.54
 119  0.500  0.083  0.833- 546 1.54 405 1.54 538 1.54 498 1.55
 120  0.500  0.333  0.333- 499 1.54 406 1.54 547 1.55 539 1.55
 121  0.500  0.334  0.833- 548 1.54 540 1.55 500 1.55 407 1.55
 122  0.500  0.582  0.335- 549 1.54 575 1.55 541 1.55 501 1.56
 123  0.500  0.583  0.833- 550 1.54 502 1.54 408 1.55 542 1.55
 124  0.500  0.833  0.333- 409 1.54 551 1.54 543 1.55 503 1.55
 125  0.500  0.833  0.834- 552 1.54 544 1.54 410 1.54 504 1.55
 126  0.667  0.083  0.333- 411 1.54 545 1.54 505 1.54 553 1.55
 127  0.667  0.083  0.833- 546 1.54 412 1.54 554 1.54 506 1.55
 128  0.666  0.334  0.334- 413 1.54 507 1.54 547 1.55 555 1.55
 129  0.667  0.333  0.834- 508 1.54 556 1.54 548 1.55 414 1.55
 130  0.667  0.584  0.334- 557 1.54 509 1.54 415 1.54 549 1.55
 131  0.667  0.584  0.834- 550 1.54 416 1.54 558 1.54 510 1.55
 132  0.667  0.833  0.333- 417 1.54 511 1.54 559 1.54 551 1.55
 133  0.667  0.833  0.833- 418 1.54 552 1.54 512 1.54 560 1.54
 134  0.833  0.083  0.333- 553 1.54 419 1.54 513 1.54 561 1.55
 135  0.833  0.083  0.833- 554 1.54 420 1.54 514 1.54 562 1.54
 136  0.833  0.333  0.333- 555 1.54 421 1.54 515 1.54 563 1.55
 137  0.833  0.333  0.834- 556 1.54 422 1.54 516 1.54 564 1.54
 138  0.834  0.584  0.333- 565 1.54 517 1.54 423 1.54 557 1.54
 139  0.834  0.584  0.834- 558 1.54 424 1.54 566 1.54 518 1.54
 140  0.833  0.833  0.333- 559 1.54 519 1.54 425 1.54 567 1.54
 141  0.834  0.833  0.833- 560 1.54 426 1.54 520 1.54 568 1.55
 142  0.083  0.208  0.333- 473 1.54 523 1.54 427 1.54 481 1.55
 143  0.083  0.208  0.833- 474 1.54 428 1.54 524 1.54 482 1.54
 144  0.083  0.458  0.333- 475 1.54 483 1.54 429 1.54 525 1.55
 145  0.083  0.458  0.833- 430 1.54 476 1.54 484 1.54 526 1.54
 146  0.083  0.708  0.333- 477 1.54 431 1.54 527 1.54 485 1.54
 147  0.084  0.708  0.833- 478 1.54 432 1.54 528 1.54 486 1.55
 148  0.083  0.958  0.333- 479 1.54 433 1.54 521 1.54 487 1.55
 149  0.083  0.958  0.833- 480 1.54 434 1.54 522 1.54 488 1.55
 150  0.250  0.208  0.333- 481 1.54 531 1.54 489 1.54 435 1.54
 151  0.250  0.208  0.833- 436 1.54 490 1.54 532 1.54 482 1.54
 152  0.249  0.458  0.332- 483 1.54 533 1.54 491 1.55 437 1.55
 153  0.250  0.458  0.833- 534 1.54 492 1.54 438 1.55 484 1.55
 154  0.250  0.708  0.333- 439 1.54 493 1.54 485 1.55 535 1.55
 155  0.250  0.708  0.833- 486 1.54 440 1.54 536 1.54 494 1.55
 156  0.250  0.958  0.333- 487 1.54 441 1.54 495 1.54 529 1.54
 157  0.250  0.958  0.833- 442 1.54 488 1.54 496 1.54 530 1.54
 158  0.416  0.208  0.333- 539 1.54 443 1.54 497 1.54 489 1.55
 159  0.417  0.208  0.833- 498 1.54 490 1.54 444 1.55 540 1.55
 160  0.417  0.458  0.833- 500 1.54 542 1.54 492 1.55 445 1.55
 161  0.417  0.708  0.334- 501 1.54 446 1.54 493 1.55 543 1.55
 162  0.417  0.708  0.833- 502 1.54 544 1.54 494 1.54 447 1.55
 163  0.417  0.958  0.333- 448 1.54 503 1.54 495 1.54 537 1.55
 164  0.417  0.958  0.833- 449 1.54 504 1.54 496 1.54 538 1.55
 165  0.583  0.208  0.333- 450 1.54 547 1.54 505 1.55 497 1.55
 166  0.583  0.208  0.833- 506 1.54 451 1.54 498 1.54 548 1.55
 167  0.583  0.459  0.335- 549 1.54 576 1.55 499 1.55 507 1.56
 168  0.584  0.459  0.833- 508 1.54 550 1.54 452 1.55 500 1.55
 169  0.584  0.708  0.334- 509 1.54 453 1.54 551 1.54 501 1.55
 170  0.584  0.708  0.834- 454 1.54 510 1.54 552 1.54 502 1.54
 171  0.583  0.958  0.333- 455 1.54 511 1.54 503 1.54 545 1.54
 172  0.583  0.958  0.833- 456 1.54 504 1.54 512 1.54 546 1.55
 173  0.750  0.208  0.333- 457 1.54 505 1.54 555 1.54 513 1.55
 174  0.750  0.208  0.833- 458 1.54 506 1.54 556 1.54 514 1.54
 175  0.750  0.459  0.334- 459 1.54 557 1.54 515 1.54 507 1.55
 176  0.750  0.458  0.834- 460 1.54 516 1.54 508 1.54 558 1.54
 177  0.750  0.709  0.333- 559 1.54 461 1.54 517 1.54 509 1.54
 178  0.750  0.709  0.834- 510 1.54 462 1.54 560 1.54 518 1.55
 179  0.750  0.958  0.333- 463 1.54 511 1.54 553 1.54 519 1.55
 180  0.750  0.958  0.833- 512 1.54 464 1.54 554 1.54 520 1.55
 181  0.916  0.208  0.333- 513 1.54 465 1.54 563 1.54 473 1.55
 182  0.917  0.208  0.833- 514 1.54 466 1.54 564 1.54 474 1.55
 183  0.917  0.458  0.333- 475 1.54 515 1.54 467 1.54 565 1.54
 184  0.917  0.458  0.833- 468 1.54 516 1.54 476 1.54 566 1.54
 185  0.917  0.708  0.333- 517 1.54 469 1.54 567 1.54 477 1.54
 186  0.917  0.708  0.833- 518 1.54 470 1.54 568 1.54 478 1.55
 187  0.917  0.958  0.333- 519 1.54 561 1.54 471 1.54 479 1.55
 188  0.917  0.958  0.833- 520 1.54 472 1.54 562 1.54 480 1.55
 189  1.000  0.167  0.167- 372 1.54 473 1.54 287 1.54 332 1.55
 190  1.000  0.167  0.667- 373 1.54 474 1.54 288 1.54 333 1.54
 191  1.000  0.417  0.167- 374 1.54 475 1.54 334 1.54 289 1.54
 192  1.000  0.417  0.667- 335 1.54 375 1.54 476 1.54 290 1.54
 193  0.000  0.667  0.167- 376 1.54 477 1.54 291 1.54 336 1.54
 194  0.000  0.667  0.667- 377 1.54 478 1.54 292 1.54 337 1.55
 195  0.000  0.917  0.167- 378 1.54 285 1.54 479 1.54 338 1.54
 196  0.000  0.917  0.667- 379 1.54 286 1.54 480 1.54 339 1.55
 197  0.166  0.166  0.166- 332 1.54 481 1.54 295 1.54 340 1.54
 198  0.167  0.166  0.667- 482 1.54 296 1.54 333 1.54 341 1.54
 199  0.166  0.416  0.166- 334 1.54 483 1.54 297 1.54 342 1.54
 200  0.166  0.416  0.667- 343 1.54 484 1.54 298 1.54 335 1.54
 201  0.167  0.667  0.167- 336 1.54 485 1.54 299 1.54 344 1.54
 202  0.167  0.667  0.667- 337 1.54 486 1.54 300 1.54 345 1.55
 203  0.167  0.917  0.167- 338 1.54 487 1.54 346 1.54 293 1.54
 204  0.167  0.917  0.667- 339 1.54 488 1.54 294 1.54 347 1.55
 205  0.333  0.167  0.166- 340 1.54 489 1.54 348 1.54 303 1.54
 206  0.333  0.167  0.667- 490 1.54 349 1.54 304 1.54 341 1.55
 207  0.333  0.416  0.166- 491 1.53 342 1.54 350 1.54 305 1.54
 208  0.333  0.417  0.666- 351 1.54 306 1.54 492 1.55 343 1.55
 209  0.333  0.666  0.167- 352 1.54 493 1.54 344 1.55 307 1.55
 210  0.334  0.667  0.667- 308 1.54 494 1.54 353 1.55 345 1.55
 211  0.333  0.917  0.167- 495 1.54 354 1.54 346 1.54 301 1.55
 212  0.333  0.917  0.667- 347 1.54 496 1.54 355 1.54 302 1.54
 213  0.500  0.167  0.167- 356 1.54 348 1.54 497 1.54 311 1.54
 214  0.500  0.167  0.667- 357 1.54 498 1.54 349 1.55 312 1.55
 215  0.499  0.417  0.167- 313 1.54 350 1.55 358 1.55 499 1.56
 216  0.500  0.417  0.665- 359 1.54 574 1.55 351 1.55 500 1.56
 217  0.500  0.666  0.167- 360 1.54 352 1.55 314 1.55 501 1.55
 218  0.500  0.667  0.667- 315 1.54 502 1.54 361 1.54 353 1.55
 219  0.500  0.917  0.167- 362 1.54 503 1.54 354 1.54 309 1.55
 220  0.500  0.917  0.667- 363 1.54 504 1.54 355 1.54 310 1.55
 221  0.667  0.167  0.167- 505 1.54 356 1.54 318 1.54 364 1.55
 222  0.667  0.167  0.667- 506 1.54 365 1.54 357 1.54 319 1.55
 223  0.666  0.417  0.167- 320 1.54 358 1.54 366 1.55 507 1.55
 224  0.667  0.417  0.667- 367 1.54 508 1.54 321 1.54 359 1.55
 225  0.667  0.667  0.167- 509 1.54 368 1.54 322 1.54 360 1.55
 226  0.667  0.667  0.667- 361 1.54 510 1.54 323 1.54 369 1.55
 227  0.667  0.917  0.167- 511 1.54 370 1.54 362 1.54 316 1.54
 228  0.667  0.917  0.667- 363 1.54 512 1.54 317 1.54 371 1.54
 229  0.833  0.167  0.167- 364 1.54 513 1.54 326 1.54 372 1.55
 230  0.833  0.167  0.667- 365 1.54 514 1.54 327 1.54 373 1.55
 231  0.833  0.417  0.167- 515 1.54 366 1.54 328 1.54 374 1.55
 232  0.834  0.417  0.667- 375 1.54 516 1.54 367 1.54 329 1.54
 233  0.833  0.667  0.167- 517 1.54 368 1.54 330 1.54 376 1.54
 234  0.834  0.667  0.667- 369 1.54 518 1.54 331 1.54 377 1.54
 235  0.833  0.917  0.167- 370 1.54 519 1.54 324 1.54 378 1.55
 236  0.833  0.917  0.667- 371 1.54 520 1.54 325 1.54 379 1.55
 237  0.083  0.042  0.167- 285 1.54 521 1.54 332 1.54 293 1.55
 238  0.083  0.042  0.667- 286 1.54 333 1.54 522 1.54 294 1.55
 239  0.083  0.291  0.166- 287 1.54 523 1.54 334 1.54 295 1.55
 240  0.083  0.292  0.667- 288 1.54 524 1.54 335 1.54 296 1.54
 241  0.083  0.542  0.166- 289 1.54 525 1.54 297 1.54 336 1.54
 242  0.083  0.542  0.667- 526 1.54 290 1.54 298 1.54 337 1.54
 243  0.083  0.792  0.167- 291 1.54 527 1.54 338 1.54 299 1.54
 244  0.084  0.792  0.667- 292 1.54 528 1.54 339 1.54 300 1.55
 245  0.250  0.042  0.167- 293 1.54 529 1.54 301 1.54 340 1.54
 246  0.250  0.042  0.667- 530 1.54 302 1.54 294 1.54 341 1.54
 247  0.250  0.291  0.166- 295 1.54 531 1.54 303 1.54 342 1.55
 248  0.250  0.291  0.666- 343 1.54 304 1.54 532 1.54 296 1.54
 249  0.250  0.542  0.166- 533 1.54 305 1.54 344 1.54 297 1.54
 250  0.250  0.541  0.666- 345 1.54 298 1.55 534 1.55 306 1.56
 251  0.250  0.792  0.167- 307 1.54 299 1.54 535 1.54 346 1.55
 252  0.250  0.792  0.667- 300 1.54 536 1.54 347 1.54 308 1.55
 253  0.417  0.042  0.167- 309 1.54 301 1.54 537 1.54 348 1.55
 254  0.417  0.042  0.667- 538 1.54 310 1.54 302 1.54 349 1.55
 255  0.416  0.292  0.166- 539 1.54 350 1.54 311 1.54 303 1.54
 256  0.417  0.292  0.666- 312 1.54 304 1.55 540 1.55 351 1.56
 257  0.417  0.541  0.167- 313 1.54 305 1.55 352 1.55 541 1.56
 258  0.417  0.542  0.665- 353 1.54 574 1.55 306 1.55 542 1.56
 259  0.417  0.792  0.167- 314 1.54 543 1.54 307 1.54 354 1.55
 260  0.417  0.792  0.667- 315 1.54 544 1.54 355 1.54 308 1.55
 261  0.583  0.042  0.167- 545 1.54 316 1.54 309 1.54 356 1.54
 262  0.583  0.042  0.667- 546 1.54 317 1.54 310 1.54 357 1.55
 263  0.583  0.292  0.167- 358 1.54 547 1.54 311 1.54 318 1.55
 264  0.583  0.292  0.667- 319 1.54 548 1.54 359 1.55 312 1.55
 265  0.583  0.542  0.167- 320 1.54 360 1.54 549 1.55 313 1.55
 266  0.585  0.543  0.669- 574 1.53 550 1.53 321 1.55 361 1.55
 267  0.583  0.792  0.167- 551 1.54 322 1.54 314 1.54 362 1.55
 268  0.584  0.792  0.667- 363 1.54 552 1.54 323 1.54 315 1.55
 269  0.750  0.042  0.167- 316 1.54 553 1.54 364 1.54 324 1.55
 270  0.750  0.042  0.667- 317 1.54 554 1.54 365 1.54 325 1.55
 271  0.750  0.292  0.167- 366 1.54 318 1.54 555 1.54 326 1.55
 272  0.750  0.292  0.667- 367 1.54 327 1.54 556 1.54 319 1.55
 273  0.750  0.542  0.167- 557 1.54 368 1.54 328 1.54 320 1.55
 274  0.751  0.542  0.667- 321 1.54 329 1.54 558 1.54 369 1.55
 275  0.750  0.792  0.167- 559 1.54 370 1.54 322 1.54 330 1.54
 276  0.750  0.792  0.667- 323 1.54 371 1.54 560 1.54 331 1.55
 277  0.917  0.042  0.167- 324 1.54 561 1.54 372 1.54 285 1.55
 278  0.917  0.042  0.667- 325 1.54 373 1.54 562 1.54 286 1.55
 279  0.916  0.292  0.167- 326 1.54 563 1.54 374 1.54 287 1.55
 280  0.917  0.292  0.667- 327 1.54 564 1.54 375 1.54 288 1.54
 281  0.917  0.542  0.167- 565 1.54 328 1.54 289 1.54 376 1.54
 282  0.917  0.542  0.667- 329 1.54 290 1.54 566 1.54 377 1.54
 283  0.917  0.792  0.167- 330 1.54 567 1.54 378 1.54 291 1.55
 284  0.917  0.792  0.667- 331 1.54 379 1.54 568 1.54 292 1.55
 285  1.000  1.000  0.125- 237 1.54   1 1.54 195 1.54 277 1.55
 286  0.000  1.000  0.625- 238 1.54 196 1.54   2 1.54 278 1.55
 287  1.000  0.250  0.125- 239 1.54   3 1.54 189 1.54 279 1.55
 288  1.000  0.250  0.625- 240 1.54 190 1.54   4 1.54 280 1.54
 289  1.000  0.500  0.125-   5 1.54 241 1.54 281 1.54 191 1.54
 290  0.000  0.500  0.625- 282 1.54 242 1.54   6 1.54 192 1.54
 291  0.000  0.750  0.125- 243 1.54   7 1.54 193 1.54 283 1.55
 292  0.000  0.750  0.625- 244 1.54   8 1.54 194 1.54 284 1.55
 293  0.167  1.000  0.125- 245 1.54   9 1.54 203 1.54 237 1.55
 294  0.167  1.000  0.625-  10 1.54 246 1.54 204 1.54 238 1.55
 295  0.166  0.250  0.125- 247 1.54  11 1.54 197 1.54 239 1.55
 296  0.166  0.250  0.625- 198 1.54  12 1.54 240 1.54 248 1.54
 297  0.166  0.500  0.125-  13 1.54 241 1.54 249 1.54 199 1.54
 298  0.167  0.500  0.625-  14 1.54 200 1.54 242 1.54 250 1.55
 299  0.167  0.750  0.125-  15 1.54 251 1.54 201 1.54 243 1.54
 300  0.167  0.750  0.625-  16 1.54 252 1.54 202 1.54 244 1.55
 301  0.333  1.000  0.125-  17 1.54 253 1.54 245 1.54 211 1.55
 302  0.333  1.000  0.625-  18 1.54 246 1.54 254 1.54 212 1.54
 303  0.333  0.250  0.125-  19 1.54 205 1.54 247 1.54 255 1.54
 304  0.333  0.250  0.625- 248 1.54  20 1.54 206 1.54 256 1.55
 305  0.333  0.500  0.125- 249 1.54 207 1.54  21 1.55 257 1.55
 306  0.334  0.499  0.624- 208 1.54 571 1.55 258 1.55 250 1.56
 307  0.333  0.750  0.125- 251 1.54  22 1.54 259 1.54 209 1.55
 308  0.334  0.750  0.625-  23 1.54 210 1.54 252 1.55 260 1.55
 309  0.500  0.000  0.125-  24 1.54 253 1.54 261 1.54 219 1.55
 310  0.500  0.000  0.625-  25 1.54 254 1.54 262 1.54 220 1.55
 311  0.500  0.250  0.125- 255 1.54 213 1.54 263 1.54  26 1.55
 312  0.500  0.250  0.625- 256 1.54  27 1.54 264 1.55 214 1.55
 313  0.500  0.500  0.125- 257 1.54 215 1.54 265 1.55  28 1.55
 314  0.500  0.750  0.125- 259 1.54 267 1.54  29 1.55 217 1.55
 315  0.500  0.750  0.625- 218 1.54  30 1.54 260 1.54 268 1.55
 316  0.667  0.000  0.125-  31 1.54 269 1.54 261 1.54 227 1.54
 317  0.667  0.000  0.625- 270 1.54  32 1.54 262 1.54 228 1.54
 318  0.666  0.250  0.125- 271 1.54  33 1.54 221 1.54 263 1.55
 319  0.667  0.250  0.625-  34 1.54 264 1.54 272 1.55 222 1.55
 320  0.667  0.500  0.125- 223 1.54 265 1.54  35 1.55 273 1.55
 321  0.668  0.500  0.626- 274 1.54 224 1.54 266 1.55  36 1.55
 322  0.667  0.750  0.125-  37 1.54 267 1.54 225 1.54 275 1.54
 323  0.667  0.750  0.625- 276 1.54 226 1.54 268 1.54  38 1.54
 324  0.833  0.000  0.125- 277 1.54  39 1.54 235 1.54 269 1.55
 325  0.833  0.000  0.625- 278 1.54  40 1.54 236 1.54 270 1.55
 326  0.833  0.250  0.125- 279 1.54  41 1.54 229 1.54 271 1.55
 327  0.833  0.250  0.625- 280 1.54  42 1.54 230 1.54 272 1.54
 328  0.833  0.500  0.125-  43 1.54 281 1.54 273 1.54 231 1.54
 329  0.834  0.500  0.625- 282 1.54 274 1.54  44 1.54 232 1.54
 330  0.833  0.750  0.125- 283 1.54  45 1.54 233 1.54 275 1.54
 331  0.834  0.750  0.625- 284 1.54 234 1.54  46 1.54 276 1.55
 332  0.083  0.125  0.125- 197 1.54  47 1.54 237 1.54 189 1.55
 333  0.083  0.125  0.625- 198 1.54 238 1.54  48 1.54 190 1.54
 334  0.083  0.375  0.125- 199 1.54  49 1.54 191 1.54 239 1.54
 335  0.083  0.375  0.625- 192 1.54 240 1.54  50 1.54 200 1.54
 336  0.083  0.625  0.125- 201 1.54  51 1.54 241 1.54 193 1.54
 337  0.084  0.625  0.625- 202 1.54  52 1.54 242 1.54 194 1.55
 338  0.083  0.875  0.125- 203 1.54  53 1.54 243 1.54 195 1.54
 339  0.083  0.875  0.625- 204 1.54  54 1.54 244 1.54 196 1.55
 340  0.250  0.125  0.125-  55 1.54 205 1.54 245 1.54 197 1.54
 341  0.250  0.125  0.625- 246 1.54  56 1.54 198 1.54 206 1.55
 342  0.249  0.375  0.124- 207 1.54  57 1.54 199 1.54 247 1.55
 343  0.250  0.375  0.625- 200 1.54 248 1.54  58 1.54 208 1.55
 344  0.250  0.625  0.125- 249 1.54 201 1.54 209 1.55  59 1.55
 345  0.250  0.625  0.625-  60 1.54 250 1.54 210 1.55 202 1.55
 346  0.250  0.875  0.125- 211 1.54  61 1.54 203 1.54 251 1.55
 347  0.250  0.875  0.625-  62 1.54 212 1.54 252 1.54 204 1.55
 348  0.417  0.125  0.125- 205 1.54 213 1.54  63 1.54 253 1.55
 349  0.417  0.125  0.625-  64 1.54 206 1.54 214 1.55 254 1.55
 350  0.416  0.375  0.125- 207 1.54 255 1.54  65 1.55 215 1.55
 351  0.416  0.376  0.624- 208 1.54 572 1.55 216 1.55 256 1.56
 352  0.417  0.625  0.126- 209 1.54 217 1.55 257 1.55  66 1.55
 353  0.417  0.625  0.625- 258 1.54  67 1.54 210 1.55 218 1.55
 354  0.417  0.875  0.125- 211 1.54  68 1.54 219 1.54 259 1.55
 355  0.417  0.875  0.625-  69 1.54 212 1.54 260 1.54 220 1.54
 356  0.583  0.125  0.125- 213 1.54 221 1.54  70 1.54 261 1.54
 357  0.583  0.125  0.625-  71 1.54 214 1.54 222 1.54 262 1.55
 358  0.583  0.375  0.126- 263 1.54 223 1.54 215 1.55  72 1.55
 359  0.584  0.375  0.625- 216 1.54  73 1.54 264 1.55 224 1.55
 360  0.583  0.625  0.125- 217 1.54 265 1.54  74 1.55 225 1.55
 361  0.584  0.626  0.626- 226 1.54 218 1.54  75 1.55 266 1.55
 362  0.583  0.875  0.125- 219 1.54  76 1.54 227 1.54 267 1.55
 363  0.583  0.875  0.625- 220 1.54 228 1.54 268 1.54  77 1.54
 364  0.750  0.125  0.125- 229 1.54  78 1.54 269 1.54 221 1.55
 365  0.750  0.125  0.625- 230 1.54  79 1.54 222 1.54 270 1.54
 366  0.750  0.375  0.125- 271 1.54 231 1.54  80 1.55 223 1.55
 367  0.750  0.375  0.625- 224 1.54  81 1.54 272 1.54 232 1.54
 368  0.750  0.625  0.125-  82 1.54 233 1.54 273 1.54 225 1.54
 369  0.751  0.625  0.625- 234 1.54  83 1.55 226 1.55 274 1.55
 370  0.750  0.875  0.125- 235 1.54  84 1.54 275 1.54 227 1.54
 371  0.750  0.875  0.625- 236 1.54 276 1.54  85 1.54 228 1.54
 372  0.917  0.125  0.125- 189 1.54  86 1.54 277 1.54 229 1.55
 373  0.917  0.125  0.625- 190 1.54 278 1.54  87 1.54 230 1.55
 374  0.916  0.375  0.125- 191 1.54  88 1.54 279 1.54 231 1.55
 375  0.917  0.375  0.625- 232 1.54 192 1.54 280 1.54  89 1.54
 376  0.917  0.625  0.125- 193 1.54  90 1.54 281 1.54 233 1.54
 377  0.917  0.625  0.625- 194 1.54  91 1.54 282 1.54 234 1.54
 378  0.917  0.875  0.125- 195 1.54  92 1.54 283 1.54 235 1.55
 379  0.917  0.875  0.625- 196 1.54 284 1.54  93 1.54 236 1.55
 380  1.000  0.083  0.458-  48 1.54   2 1.54  94 1.54  87 1.55
 381  1.000  0.083  0.958-  47 1.54  95 1.54   1 1.54  86 1.55
 382  1.000  0.333  0.458-  50 1.54  89 1.54   4 1.54  96 1.54
 383  1.000  0.333  0.958-  49 1.54  97 1.54   3 1.54  88 1.55
 384  0.000  0.583  0.458-  91 1.54  52 1.54  98 1.54   6 1.55
 385  0.000  0.583  0.958-  51 1.54  99 1.54   5 1.54  90 1.55
 386  0.000  0.833  0.458-  54 1.54   8 1.54 100 1.54  93 1.55
 387  0.000  0.833  0.958-  53 1.54 101 1.54   7 1.54  92 1.55
 388  0.166  0.083  0.458-  56 1.54  10 1.54 102 1.54  48 1.55
 389  0.167  0.083  0.958- 103 1.54  55 1.54   9 1.54  47 1.55
 390  0.166  0.333  0.458-  58 1.54  50 1.54  12 1.54 104 1.55
 391  0.166  0.333  0.958-  57 1.54 105 1.54  11 1.54  49 1.54
 392  0.167  0.583  0.458- 106 1.54  14 1.54  52 1.54  60 1.55
 393  0.167  0.583  0.958-  59 1.54  13 1.54 107 1.55  51 1.55
 394  0.167  0.833  0.458- 108 1.54  62 1.54  16 1.55  54 1.55
 395  0.167  0.833  0.958-  61 1.54 109 1.54  15 1.54  53 1.54
 396  0.333  0.083  0.458- 110 1.54  56 1.54  18 1.54  64 1.55
 397  0.333  0.083  0.958- 111 1.54  63 1.54  55 1.54  17 1.55
 398  0.331  0.332  0.458-  20 1.53 572 1.54  58 1.55 112 1.55
 399  0.333  0.333  0.958-  57 1.54  19 1.54 113 1.55  65 1.55
 400  0.334  0.582  0.458- 114 1.54 571 1.55  67 1.55  60 1.56
 401  0.334  0.583  0.958-  21 1.54  66 1.54  59 1.55 115 1.55
 402  0.334  0.833  0.458- 116 1.54  69 1.54  62 1.55  23 1.55
 403  0.333  0.833  0.958-  68 1.54 117 1.54  61 1.54  22 1.55
 404  0.500  0.083  0.458-  64 1.54 118 1.54  71 1.54  25 1.55
 405  0.500  0.083  0.958-  63 1.54 119 1.54  70 1.54  24 1.55
 406  0.499  0.334  0.458- 120 1.54 572 1.55  73 1.55  27 1.56
 407  0.500  0.334  0.958-  65 1.54  72 1.54  26 1.55 121 1.55
 408  0.500  0.583  0.959-  66 1.54  28 1.54  74 1.55 123 1.55
 409  0.500  0.833  0.458-  69 1.54 124 1.54  30 1.55  77 1.55
 410  0.500  0.833  0.959-  68 1.54  76 1.54 125 1.54  29 1.55
 411  0.667  0.084  0.458- 126 1.54  79 1.54  32 1.55  71 1.55
 412  0.667  0.083  0.958-  78 1.54 127 1.54  70 1.54  31 1.54
 413  0.666  0.334  0.458- 128 1.54  81 1.55  34 1.55  73 1.56
 414  0.667  0.333  0.959-  33 1.54  80 1.54 129 1.55  72 1.55
 415  0.668  0.584  0.459-  83 1.54 130 1.54  75 1.55  36 1.55
 416  0.667  0.584  0.959- 131 1.54  82 1.54  35 1.54  74 1.54
 417  0.667  0.834  0.458-  38 1.54  85 1.54 132 1.54  77 1.54
 418  0.667  0.833  0.958- 133 1.54  84 1.54  76 1.54  37 1.54
 419  0.833  0.083  0.458-  87 1.54 134 1.54  40 1.54  79 1.55
 420  0.833  0.083  0.958-  86 1.54 135 1.54  39 1.54  78 1.54
 421  0.833  0.333  0.458-  42 1.54  89 1.54 136 1.54  81 1.54
 422  0.833  0.333  0.958-  88 1.54 137 1.54  41 1.54  80 1.55
 423  0.834  0.584  0.458-  91 1.54  83 1.54 138 1.54  44 1.55
 424  0.834  0.583  0.959-  90 1.54 139 1.54  43 1.54  82 1.54
 425  0.834  0.834  0.458-  93 1.54  46 1.54 140 1.54  85 1.55
 426  0.833  0.833  0.958-  92 1.54 141 1.54  45 1.54  84 1.55
 427  0.083  0.208  0.458-  12 1.54  48 1.54 142 1.54   4 1.54
 428  0.083  0.208  0.958-  11 1.54 143 1.54  47 1.54   3 1.55
 429  0.083  0.458  0.458-  14 1.54   6 1.54 144 1.54  50 1.55
 430  0.083  0.458  0.958- 145 1.54  13 1.54   5 1.54  49 1.54
 431  0.084  0.708  0.458-  16 1.54  52 1.54 146 1.54   8 1.55
 432  0.083  0.708  0.958-  15 1.54 147 1.54  51 1.54   7 1.55
 433  0.083  0.958  0.458-  10 1.54 148 1.54  54 1.54   2 1.55
 434  0.083  0.958  0.958-   9 1.54 149 1.54  53 1.54   1 1.54
 435  0.249  0.208  0.458-  20 1.54  56 1.54 150 1.54  12 1.54
 436  0.250  0.208  0.958- 151 1.54  19 1.54  11 1.54  55 1.54
 437  0.247  0.458  0.458-  14 1.53 571 1.53 152 1.55  58 1.55
 438  0.250  0.458  0.958-  13 1.54  57 1.54 153 1.55  21 1.55
 439  0.250  0.708  0.458- 154 1.54  23 1.54  16 1.55  60 1.55
 440  0.250  0.708  0.958-  22 1.54  59 1.54 155 1.54  15 1.55
 441  0.250  0.958  0.458- 156 1.54  18 1.54  10 1.55  62 1.55
 442  0.250  0.958  0.958- 157 1.54  17 1.54   9 1.54  61 1.54
 443  0.416  0.208  0.458-  20 1.54 158 1.54  64 1.55  27 1.55
 444  0.417  0.208  0.958-  19 1.54  26 1.54 159 1.55  63 1.55
 445  0.417  0.458  0.958-  21 1.54  65 1.54  28 1.55 160 1.55
 446  0.417  0.708  0.458- 161 1.54  30 1.55  23 1.55  67 1.56
 447  0.417  0.708  0.959-  22 1.54  29 1.54 162 1.55  66 1.55
 448  0.417  0.958  0.458-  18 1.54 163 1.54  25 1.54  69 1.55
 449  0.417  0.958  0.958-  17 1.54 164 1.54  24 1.54  68 1.55
 450  0.583  0.209  0.458- 165 1.54  34 1.54  27 1.55  71 1.55
 451  0.583  0.208  0.958-  26 1.54  33 1.54 166 1.54  70 1.55
 452  0.583  0.458  0.959-  72 1.54  28 1.54  35 1.55 168 1.55
 453  0.584  0.709  0.459-  75 1.53  38 1.54 169 1.54  30 1.54
 454  0.583  0.708  0.959-  29 1.54 170 1.54  37 1.54  74 1.54
 455  0.583  0.958  0.458- 171 1.54  25 1.54  32 1.54  77 1.54
 456  0.583  0.958  0.958-  24 1.54 172 1.54  31 1.54  76 1.55
 457  0.750  0.209  0.458- 173 1.54  42 1.54  79 1.55  34 1.55
 458  0.750  0.208  0.958-  41 1.54 174 1.54  78 1.54  33 1.55
 459  0.751  0.459  0.459-  36 1.53  44 1.54 175 1.54  81 1.54
 460  0.750  0.458  0.959- 176 1.54  43 1.54  80 1.54  35 1.54
 461  0.751  0.709  0.458-  46 1.54  83 1.54 177 1.54  38 1.54
 462  0.750  0.708  0.959-  45 1.54 178 1.54  37 1.54  82 1.54
 463  0.750  0.959  0.458-  40 1.54  85 1.54 179 1.54  32 1.55
 464  0.750  0.958  0.958-  39 1.54 180 1.54  31 1.54  84 1.54
 465  0.916  0.208  0.458-   4 1.54  87 1.54 181 1.54  42 1.55
 466  0.917  0.208  0.958-   3 1.54 182 1.54  86 1.54  41 1.55
 467  0.917  0.458  0.458-  44 1.54   6 1.54 183 1.54  89 1.55
 468  0.917  0.458  0.958- 184 1.54   5 1.54  88 1.54  43 1.54
 469  0.917  0.708  0.458-   8 1.54  91 1.54 185 1.54  46 1.54
 470  0.917  0.708  0.958-   7 1.54 186 1.54  90 1.54  45 1.55
 471  0.917  0.958  0.458-   2 1.54  93 1.54 187 1.54  40 1.55
 472  0.917  0.958  0.958-   1 1.54 188 1.54  92 1.54  39 1.54
 473  1.000  0.167  0.292- 142 1.54 189 1.54  94 1.54 181 1.55
 474  1.000  0.167  0.792- 143 1.54 190 1.54  95 1.54 182 1.55
 475  1.000  0.417  0.291- 144 1.54 183 1.54 191 1.54  96 1.54
 476  1.000  0.417  0.792- 192 1.54 145 1.54 184 1.54  97 1.54
 477  0.000  0.667  0.292- 146 1.54 193 1.54  98 1.54 185 1.54
 478  0.000  0.667  0.792- 147 1.54 194 1.54  99 1.54 186 1.55
 479  0.000  0.917  0.292- 148 1.54 100 1.54 195 1.54 187 1.55
 480  0.000  0.917  0.792- 149 1.54 196 1.54 101 1.54 188 1.55
 481  0.166  0.166  0.291- 150 1.54 102 1.54 197 1.54 142 1.55
 482  0.167  0.167  0.792- 198 1.54 103 1.54 151 1.54 143 1.54
 483  0.166  0.416  0.291- 152 1.54 144 1.54 199 1.54 104 1.55
 484  0.167  0.417  0.791- 200 1.54 145 1.54 105 1.54 153 1.55
 485  0.167  0.667  0.292- 106 1.54 146 1.54 201 1.54 154 1.55
 486  0.167  0.667  0.792- 107 1.54 155 1.54 202 1.54 147 1.55
 487  0.167  0.917  0.292- 156 1.54 203 1.54 108 1.54 148 1.55
 488  0.167  0.917  0.792- 157 1.54 204 1.54 109 1.54 149 1.55
 489  0.333  0.166  0.291- 110 1.54 205 1.54 150 1.54 158 1.55
 490  0.333  0.167  0.791- 206 1.54 151 1.54 159 1.54 111 1.55
 491  0.331  0.416  0.290- 573 1.53 207 1.53 152 1.55 112 1.55
 492  0.333  0.417  0.791- 153 1.54 113 1.54 208 1.55 160 1.55
 493  0.333  0.666  0.292- 154 1.54 209 1.54 114 1.55 161 1.55
 494  0.334  0.667  0.792- 115 1.54 210 1.54 162 1.54 155 1.55
 495  0.333  0.917  0.292- 211 1.54 156 1.54 163 1.54 116 1.55
 496  0.333  0.917  0.792- 212 1.54 157 1.54 164 1.54 117 1.55
 497  0.500  0.167  0.292- 158 1.54 213 1.54 118 1.54 165 1.55
 498  0.500  0.167  0.791- 159 1.54 214 1.54 166 1.54 119 1.55
 499  0.499  0.417  0.293- 120 1.54 573 1.55 167 1.55 215 1.56
 500  0.500  0.417  0.791- 160 1.54 168 1.55 121 1.55 216 1.56
 501  0.500  0.666  0.293- 161 1.54 169 1.55 217 1.55 122 1.56
 502  0.500  0.667  0.792- 218 1.54 123 1.54 162 1.54 170 1.54
 503  0.500  0.917  0.292- 219 1.54 163 1.54 171 1.54 124 1.55
 504  0.500  0.917  0.792- 164 1.54 172 1.54 220 1.54 125 1.55
 505  0.666  0.167  0.292- 173 1.54 221 1.54 126 1.54 165 1.55
 506  0.667  0.167  0.792- 166 1.54 174 1.54 222 1.54 127 1.55
 507  0.666  0.417  0.293- 128 1.54 175 1.55 223 1.55 167 1.56
 508  0.667  0.417  0.792- 224 1.54 168 1.54 129 1.54 176 1.54
 509  0.667  0.667  0.292- 130 1.54 169 1.54 225 1.54 177 1.54
 510  0.667  0.667  0.792- 178 1.54 226 1.54 170 1.54 131 1.55
 511  0.667  0.917  0.292- 227 1.54 171 1.54 179 1.54 132 1.54
 512  0.667  0.917  0.792- 180 1.54 228 1.54 172 1.54 133 1.54
 513  0.833  0.167  0.292- 181 1.54 229 1.54 134 1.54 173 1.55
 514  0.833  0.167  0.792- 182 1.54 230 1.54 135 1.54 174 1.54
 515  0.833  0.417  0.292- 231 1.54 183 1.54 175 1.54 136 1.54
 516  0.833  0.417  0.792- 184 1.54 232 1.54 176 1.54 137 1.54
 517  0.834  0.667  0.292- 185 1.54 233 1.54 177 1.54 138 1.54
 518  0.834  0.667  0.792- 186 1.54 234 1.54 139 1.54 178 1.55
 519  0.833  0.917  0.292- 187 1.54 140 1.54 235 1.54 179 1.55
 520  0.833  0.917  0.792- 188 1.54 236 1.54 141 1.54 180 1.55
 521  0.083  0.042  0.292- 102 1.54 237 1.54 148 1.54  94 1.55
 522  0.083  0.042  0.792- 103 1.54 238 1.54 149 1.54  95 1.55
 523  0.083  0.291  0.291- 104 1.54 239 1.54 142 1.54  96 1.54
 524  0.083  0.292  0.792- 240 1.54 105 1.54 143 1.54  97 1.54
 525  0.083  0.542  0.291-  98 1.54 241 1.54 106 1.54 144 1.55
 526  0.083  0.542  0.792- 242 1.54 107 1.54 145 1.54  99 1.55
 527  0.083  0.792  0.292- 108 1.54 243 1.54 146 1.54 100 1.55
 528  0.084  0.792  0.792- 109 1.54 244 1.54 147 1.54 101 1.55
 529  0.250  0.041  0.292- 110 1.54 245 1.54 156 1.54 102 1.54
 530  0.250  0.042  0.792- 246 1.54 103 1.54 111 1.54 157 1.54
 531  0.249  0.291  0.291- 112 1.54 247 1.54 150 1.54 104 1.55
 532  0.250  0.292  0.791- 248 1.54 105 1.54 151 1.54 113 1.55
 533  0.250  0.541  0.291- 106 1.54 249 1.54 152 1.54 114 1.55
 534  0.250  0.541  0.791- 153 1.54 115 1.54 107 1.55 250 1.55
 535  0.250  0.791  0.292- 251 1.54 108 1.54 116 1.54 154 1.55
 536  0.250  0.792  0.792- 252 1.54 117 1.54 155 1.54 109 1.55
 537  0.417  0.042  0.292- 110 1.54 253 1.54 118 1.54 163 1.55
 538  0.417  0.042  0.792- 111 1.54 254 1.54 119 1.54 164 1.55
 539  0.416  0.291  0.291- 158 1.54 255 1.54 112 1.54 120 1.55
 540  0.417  0.292  0.791- 113 1.54 121 1.55 256 1.55 159 1.55
 541  0.416  0.541  0.293- 114 1.54 573 1.55 122 1.55 257 1.56
 542  0.417  0.541  0.791- 160 1.54 123 1.55 115 1.55 258 1.56
 543  0.417  0.792  0.292- 116 1.54 259 1.54 124 1.55 161 1.55
 544  0.417  0.792  0.792- 117 1.54 125 1.54 260 1.54 162 1.54
 545  0.583  0.042  0.292- 126 1.54 261 1.54 118 1.54 171 1.54
 546  0.583  0.042  0.792- 262 1.54 119 1.54 127 1.54 172 1.55
 547  0.583  0.292  0.292- 263 1.54 165 1.54 120 1.55 128 1.55
 548  0.583  0.292  0.792- 121 1.54 264 1.54 129 1.55 166 1.55
 549  0.584  0.542  0.292- 122 1.54 167 1.54 265 1.55 130 1.55
 550  0.584  0.542  0.793- 266 1.53 131 1.54 123 1.54 168 1.54
 551  0.583  0.792  0.292- 267 1.54 124 1.54 169 1.54 132 1.55
 552  0.583  0.792  0.792- 133 1.54 268 1.54 125 1.54 170 1.54
 553  0.750  0.042  0.292- 134 1.54 269 1.54 179 1.54 126 1.55
 554  0.750  0.042  0.792- 135 1.54 270 1.54 127 1.54 180 1.54
 555  0.750  0.292  0.292- 136 1.54 271 1.54 173 1.54 128 1.55
 556  0.750  0.292  0.792- 137 1.54 272 1.54 174 1.54 129 1.54
 557  0.750  0.542  0.292- 130 1.54 273 1.54 175 1.54 138 1.54
 558  0.751  0.542  0.792- 139 1.54 274 1.54 176 1.54 131 1.54
 559  0.750  0.792  0.292- 275 1.54 177 1.54 140 1.54 132 1.54
 560  0.750  0.792  0.792- 141 1.54 276 1.54 178 1.54 133 1.54
 561  0.917  0.042  0.292-  94 1.54 187 1.54 277 1.54 134 1.55
 562  0.917  0.042  0.792-  95 1.54 278 1.54 188 1.54 135 1.54
 563  0.916  0.292  0.292-  96 1.54 279 1.54 181 1.54 136 1.55
 564  0.917  0.292  0.792-  97 1.54 280 1.54 182 1.54 137 1.54
 565  0.917  0.542  0.292- 138 1.54  98 1.54 281 1.54 183 1.54
 566  0.917  0.542  0.792-  99 1.54 282 1.54 139 1.54 184 1.54
 567  0.917  0.792  0.292- 100 1.54 283 1.54 185 1.54 140 1.54
 568  0.917  0.792  0.792- 101 1.54 284 1.54 186 1.54 141 1.55
 569  0.513  0.507  0.507- 574 1.48 576 1.48 575 1.48
 570  0.404  0.452  0.452- 573 1.48 571 1.48 572 1.48
 571  0.331  0.498  0.498- 570 1.48 437 1.53 400 1.55 306 1.55
 572  0.414  0.374  0.498- 570 1.48 398 1.54 406 1.55 351 1.55
 573  0.414  0.457  0.333- 570 1.48 491 1.53 499 1.55 541 1.55
 574  0.503  0.502  0.626- 569 1.48 266 1.53 258 1.55 216 1.55
 575  0.503  0.584  0.460- 569 1.48  75 1.54  67 1.55 122 1.55
 576  0.586  0.460  0.460- 569 1.48  36 1.53  73 1.55 167 1.55
 
  LATTYP: Found a simple orthorhombic cell.
 ALAT       =    12.3557996750
 B/A-ratio  =     1.2247365795
 C/A-ratio  =     1.4142023056
  
  Lattice vectors:
  
 A1 = (   0.0000000000,   0.0000000000,  12.3557996750)
 A2 = (  15.1325998306,   0.0000000000,   0.0000000000)
 A3 = (   0.0000000000,  17.4736003876,   0.0000000000)


Analysis of symmetry for initial positions (statically):
=====================================================================
 Subroutine PRICEL returns:
 Original cell was already a primitive cell.
 

 Routine SETGRP: Setting up the symmetry group for a 
 simple orthorhombic supercell.


 Subroutine GETGRP returns: Found  2 space group operations
 (whereof  1 operations were pure point group operations)
 out of a pool of  8 trial point group operations.


The static configuration has the point symmetry C_1 .
 The point group associated with its full space group is S_2 .


Analysis of symmetry for dynamics (positions and initial velocities):
=====================================================================
 Subroutine PRICEL returns:
 Original cell was already a primitive cell.
 

 Routine SETGRP: Setting up the symmetry group for a 
 simple orthorhombic supercell.


 Subroutine GETGRP returns: Found  2 space group operations
 (whereof  1 operations were pure point group operations)
 out of a pool of  8 trial point group operations.


The dynamic configuration has the point symmetry C_1 .
 The point group associated with its full space group is S_2 .


Analysis of structural, dynamic, and magnetic symmetry:
=====================================================================
 Subroutine PRICEL returns:
 Original cell was already a primitive cell.
 

 Routine SETGRP: Setting up the symmetry group for a 
 simple orthorhombic supercell.


 Subroutine GETGRP returns: Found  2 space group operations
 (whereof  1 operations were pure point group operations)
 out of a pool of  8 trial point group operations.


The overall configuration has the point symmetry C_1 .
 The point group associated with its full space group is S_2 .


 Subroutine INISYM returns: Found  2 space group operations
 (whereof  1 operations are pure point group operations),
 and found     1 'primitive' translations


----------------------------------------------------------------------------------------

                                     Primitive cell                                     

  volume of cell :    3267.1329

  direct lattice vectors                    reciprocal lattice vectors
    15.132599831  0.000000000  0.000000000     0.066082498  0.000000000  0.000000000
     0.000000000 17.473600388  0.000000000     0.000000000  0.057229190  0.000000000
     0.000000000  0.000000000 12.355799675     0.000000000  0.000000000  0.080933653

  length of vectors
    15.132599831 17.473600388 12.355799675     0.066082498  0.057229190  0.080933653

  position of ions in fractional coordinates (direct lattice)
     0.999994172  0.999967093  0.000001724
     0.999987861  0.999939991  0.500013621
     0.999845900  0.249920917  0.999934626
     0.999699751  0.249850372  0.499966817
     0.000004672  0.499994343  0.999945954
     0.999889022  0.499975252  0.499961217
     0.000140183  0.750034025  0.000003432
     0.000230867  0.750047434  0.500016852
     0.166659420  0.999915710  0.999971530
     0.166631688  0.999770453  0.499997259
     0.166467904  0.249849509  0.999739170
     0.166141134  0.249571335  0.499856459
     0.166612169  0.499914240  0.999726784
     0.165577246  0.499745425  0.499732861
     0.166774141  0.749941225  0.999941657
     0.166906730  0.749725129  0.499977100
     0.333341854  0.999949885  0.999981404
     0.333325436  0.999872937  0.499999182
     0.333210374  0.249947655  0.999715558
     0.332503248  0.249152928  0.499744286
     0.333331725  0.499929999  0.999751758
     0.333397753  0.749888506  0.000086630
     0.333652033  0.749539276  0.500102116
     0.499994790  0.000019544  0.999982858
     0.499989820  0.000042758  0.500008496
     0.499925713  0.250092444  0.999761301
     0.499444994  0.250493297  0.499960147
     0.499982109  0.499995940  0.000159355
     0.500067433  0.749910965  0.000281646
     0.500358050  0.750049780  0.500227550
     0.666640915  0.000059867  0.000002033
     0.666614302  0.000189320  0.500011573
     0.666538071  0.250085722  0.000073747
     0.666297972  0.250457277  0.500104551
     0.666731887  0.500094502  0.000275064
     0.669194850  0.500796340  0.500816168
     0.666779926  0.750081557  0.000188143
     0.667302521  0.750600333  0.500255250
     0.833311750  0.000035818  0.000013685
     0.833313414  0.000144742  0.500024640
     0.833180712  0.250011759  0.000075076
     0.833150401  0.250062368  0.500082068
     0.833397082  0.500072887  0.000173947
     0.834017449  0.500223841  0.500246715
     0.833484911  0.750113968  0.000133157
     0.833724926  0.750294148  0.500118408
     0.083231235  0.124897294  0.999933683
     0.083108178  0.124767867  0.499968425
     0.083114901  0.374886426  0.999730048
     0.082754482  0.374757370  0.499861247
     0.083458222  0.624967552  0.999840864
     0.083486230  0.624973226  0.499930198
     0.083399260  0.874975459  0.000008951
     0.083467325  0.874876640  0.500015333
     0.249937361  0.124916252  0.999878597
     0.249709992  0.124628393  0.499913702
     0.249719604  0.374831008  0.999454777
     0.248662356  0.374269359  0.499721156
     0.250115470  0.624890679  0.999754031
     0.250324041  0.624315534  0.499956858
     0.250044919  0.874923979  0.000026604
     0.250149398  0.874759848  0.500037320
     0.416629675  0.125028983  0.999809285
     0.416557092  0.124951886  0.499913661
     0.416596061  0.375008169  0.999737071
     0.416746117  0.624817017  0.000237619
     0.417490202  0.623938931  0.500647452
     0.416692514  0.874938870  0.000100705
     0.416774889  0.874922862  0.500075674
     0.583272137  0.125077629  0.999939077
     0.583100879  0.125274380  0.499994663
     0.583144414  0.375149632  0.000244882
     0.582626144  0.376165716  0.500662869
     0.583450304  0.625047381  0.000322813
     0.585367106  0.626614518  0.500816127
     0.583351856  0.875019226  0.000116426
     0.583465350  0.875139994  0.500121424
     0.749921635  0.125046287  0.000029368
     0.749812335  0.125204436  0.500038026
     0.749861222  0.375098630  0.000283272
     0.750066200  0.375267000  0.500250274
     0.750235954  0.625149070  0.000362422
     0.750935393  0.625535997  0.500303606
     0.750048822  0.875085529  0.000083213
     0.750199611  0.875290598  0.500083584
     0.916564888  0.124971611  0.999992434
     0.916518786  0.124983051  0.500022148
     0.916538857  0.374990357  0.000029256
     0.916500141  0.374992703  0.500065612
     0.916842852  0.625083451  0.000107483
     0.917070299  0.625180330  0.500099086
     0.916736606  0.875056744  0.000032809
     0.916815570  0.875110941  0.500033169
     0.999857105  0.083223228  0.333315163
     0.999953749  0.083278819  0.833343136
     0.999641683  0.333201465  0.333223015
     0.999888827  0.333267662  0.833282539
     0.000027868  0.583348864  0.333271263
     0.000216643  0.583373454  0.833357779
     0.000108387  0.833337204  0.333326084
     0.000152578  0.833375876  0.833368821
     0.166493430  0.083063751  0.333255238
     0.166640290  0.083248545  0.833290247
     0.166039845  0.332955953  0.332965101
     0.166513200  0.333208427  0.833071519
     0.166505340  0.583191624  0.333117577
     0.166898460  0.583230161  0.832972070
     0.166770115  0.833171862  0.333338427
     0.166792337  0.833279041  0.833332104
     0.333211712  0.083163317  0.333234241
     0.333320398  0.083320158  0.833243331
     0.332290995  0.332455694  0.332446135
     0.333264761  0.333339740  0.832963462
     0.333138650  0.583001964  0.333253773
     0.333656271  0.583202444  0.832763214
     0.333433238  0.833128498  0.333412848
     0.333421986  0.833272988  0.833400236
     0.499903793  0.083339591  0.333278348
     0.499971233  0.083423041  0.833246805
     0.499563132  0.333308844  0.333266915
     0.500007754  0.333608498  0.832768939
     0.500446996  0.582445130  0.334668909
     0.500340739  0.583450796  0.833490035
     0.500079988  0.833299499  0.333455605
     0.500086435  0.833354919  0.833505554
     0.666536613  0.083449269  0.333338086
     0.666634783  0.083434296  0.833321584
     0.666347484  0.333597035  0.333594487
     0.666662064  0.333474137  0.833506686
     0.667140010  0.583627151  0.333615425
     0.667295492  0.583678370  0.834095156
     0.666815243  0.833471477  0.333430232
     0.666809194  0.833476268  0.833489117
     0.833190838  0.083384981  0.333351668
     0.833286090  0.083377029  0.833363443
     0.833120202  0.333376642  0.333430451
     0.833284040  0.333393464  0.833500916
     0.833586920  0.583505132  0.333467660
     0.833712742  0.583518945  0.833687080
     0.833474980  0.833471229  0.333381007
     0.833503139  0.833488227  0.833446777
     0.083012373  0.208090892  0.333208881
     0.083214052  0.208230585  0.833261186
     0.082789245  0.458170288  0.333055331
     0.083334453  0.458278197  0.833218827
     0.083440606  0.708288122  0.333274327
     0.083543589  0.708323483  0.833296120
     0.083329778  0.958202568  0.333350758
     0.083385529  0.958291818  0.833363976
     0.249543763  0.207873690  0.333061963
     0.249911505  0.208255725  0.833201746
     0.248671305  0.457909547  0.332434628
     0.250036464  0.458240981  0.833017456
     0.250107385  0.708092306  0.333341415
     0.250183541  0.708244185  0.833278712
     0.250013623  0.958151174  0.333361085
     0.250037170  0.958268145  0.833373268
     0.416414974  0.208172342  0.333161265
     0.416622626  0.208468215  0.832957119
     0.416769276  0.458380151  0.832939894
     0.416805333  0.708044906  0.333592529
     0.416813544  0.708293745  0.833498159
     0.416668598  0.958266679  0.333361695
     0.416679255  0.958331279  0.833371255
     0.583111823  0.208477064  0.333341465
     0.583290272  0.208481330  0.833262971
     0.582629639  0.459154888  0.334665534
     0.583590026  0.458553199  0.833494407
     0.583638549  0.708422999  0.333662505
     0.583577183  0.708482445  0.833647342
     0.583338401  0.958385346  0.333373582
     0.583341943  0.958420169  0.833378252
     0.749773074  0.208465319  0.333436600
     0.749935126  0.208416401  0.833425310
     0.750088173  0.458562602  0.333650427
     0.750212392  0.458486251  0.833653814
     0.750288724  0.708564545  0.333495339
     0.750342138  0.708579708  0.833671000
     0.749996680  0.958455920  0.333377822
     0.750029580  0.958453333  0.833400876
     0.916436836  0.208281831  0.333333304
     0.916562576  0.208313186  0.833371668
     0.916521820  0.458354801  0.333351639
     0.916757721  0.458381233  0.833447613
     0.916851559  0.708439492  0.333381072
     0.916906977  0.708452078  0.833445107
     0.916654583  0.958359140  0.333341940
     0.916701168  0.958380409  0.833375412
     0.999812643  0.166554403  0.166603998
     0.999879296  0.166584904  0.666676156
     0.999744213  0.416586164  0.166505338
     0.999957377  0.416625550  0.666675204
     0.000110538  0.666683700  0.166620635
     0.000278329  0.666736727  0.666714266
     0.000032896  0.916645047  0.166658427
     0.000108893  0.916678420  0.666693514
     0.166426064  0.166446012  0.166484376
     0.166506263  0.166498465  0.666621431
     0.166156753  0.416438520  0.166140145
     0.166441207  0.416498386  0.666513860
     0.166698399  0.666567587  0.166537157
     0.166913070  0.666529035  0.666541423
     0.166687597  0.916551209  0.166695500
     0.166761109  0.916568998  0.666697682
     0.333167766  0.166533771  0.166471283
     0.333225451  0.166608624  0.666568770
     0.332518554  0.416239225  0.165528885
     0.333114888  0.416526350  0.666259504
     0.333336710  0.666464798  0.166772060
     0.333573482  0.666545009  0.666609000
     0.333349301  0.916546459  0.166725800
     0.333392797  0.916607141  0.666709400
     0.499885576  0.166686228  0.166532607
     0.499892727  0.166824218  0.666521820
     0.499453422  0.416836493  0.167269866
     0.500460099  0.417267338  0.665110576
     0.500070395  0.666352150  0.167246169
     0.500472957  0.666929911  0.667005838
     0.500013813  0.916637682  0.166727357
     0.500071308  0.916722651  0.666742866
     0.666514342  0.166750483  0.166712348
     0.666570681  0.166849121  0.666674914
     0.666316906  0.416899711  0.167231667
     0.667083999  0.416936935  0.667036110
     0.666799771  0.666763610  0.166898363
     0.667447884  0.667278363  0.667285863
     0.666674695  0.916731798  0.166726325
     0.666751096  0.916854733  0.666764693
     0.833142374  0.166679416  0.166709005
     0.833228007  0.166719266  0.666723169
     0.833173012  0.416718748  0.166804323
     0.833508101  0.416783976  0.666890611
     0.833487418  0.666792348  0.166821103
     0.833801390  0.666940453  0.666931598
     0.833340569  0.916732189  0.166686758
     0.833439247  0.916832550  0.666733594
     0.083260594  0.041537802  0.166621878
     0.083312455  0.041568441  0.666671363
     0.083014286  0.291481899  0.166429067
     0.083124164  0.291511506  0.666560922
     0.083235787  0.541596744  0.166466800
     0.083479186  0.541634164  0.666596566
     0.083420157  0.791630150  0.166633259
     0.083546526  0.791632401  0.666648377
     0.249945125  0.041524140  0.166586269
     0.249975133  0.041552865  0.666643859
     0.249549234  0.291336461  0.166141388
     0.249735932  0.291468193  0.666481662
     0.249804739  0.541505898  0.166370058
     0.250316512  0.541401001  0.665793377
     0.250050045  0.791518966  0.166671927
     0.250175162  0.791539070  0.666638338
     0.416627778  0.041623932  0.166592839
     0.416641386  0.041674141  0.666630824
     0.416415749  0.291550805  0.166392929
     0.416545334  0.291950945  0.665774911
     0.416571437  0.541177024  0.167260068
     0.417494957  0.541725366  0.665093456
     0.416708166  0.791514344  0.166834354
     0.416816628  0.791659224  0.666781807
     0.583290050  0.041705485  0.166637583
     0.583299243  0.041805339  0.666627363
     0.583106393  0.291756075  0.166764648
     0.583285476  0.291890116  0.666602849
     0.583331739  0.541692078  0.166968597
     0.585368067  0.542736287  0.668597360
     0.583399994  0.791653361  0.166834630
     0.583595547  0.791880824  0.666877565
     0.749922978  0.041725901  0.166659667
     0.749958799  0.041813520  0.666659380
     0.749756999  0.291762501  0.166812176
     0.749967067  0.291795524  0.666789123
     0.750072921  0.541780920  0.166857484
     0.750923183  0.542035297  0.667293653
     0.750097254  0.791771866  0.166758019
     0.750345643  0.791998303  0.666869280
     0.916580044  0.041646594  0.166665175
     0.916635551  0.041693153  0.666695728
     0.916431455  0.291620710  0.166646433
     0.916551336  0.291653517  0.666731290
     0.916678005  0.541708997  0.166697799
     0.917034901  0.541793077  0.666863702
     0.916761120  0.791738842  0.166688900
     0.916902640  0.791805660  0.666745658
     0.999965519  0.999952070  0.124959630
     0.000012104  0.999973339  0.624993102
     0.999759710  0.249880401  0.124889935
     0.999815128  0.249892987  0.624953970
     0.999908966  0.499951246  0.124887429
     0.000144867  0.499977678  0.624983403
     0.000104111  0.750019308  0.124963374
     0.000229851  0.750050663  0.625001738
     0.166637092  0.999879146  0.124934166
     0.166669992  0.999876559  0.624957220
     0.166324534  0.249752771  0.124664042
     0.166377948  0.249767934  0.624839703
     0.166454280  0.499846228  0.124681228
     0.166578499  0.499769877  0.624684615
     0.166731546  0.749916093  0.124909732
     0.166893598  0.749867175  0.624898442
     0.333324713  0.999912310  0.124956790
     0.333328255  0.999947133  0.624961460
     0.333089473  0.249850034  0.124687700
     0.333028107  0.249909480  0.624672537
     0.333076630  0.499779280  0.124840635
     0.334037017  0.499177591  0.623669508
     0.333376384  0.749851164  0.125072071
     0.333554833  0.749855430  0.624993577
     0.499987402  0.000001200  0.124963787
     0.499998059  0.000065800  0.624973347
     0.499853113  0.250038734  0.124836883
     0.499861324  0.250287573  0.624742513
     0.499897381  0.499952328  0.125395148
     0.500044031  0.749864279  0.125377923
     0.500251683  0.750160152  0.625173777
     0.666629517  0.000064334  0.124961774
     0.666653064  0.000181305  0.624973957
     0.666483146  0.250088294  0.125056330
     0.666559302  0.250240173  0.624993627
     0.666630223  0.500091498  0.125317586
     0.667995382  0.500422932  0.625900414
     0.666755182  0.750076769  0.125133296
     0.667122924  0.750458804  0.625273079
     0.833281120  0.000040661  0.124971066
     0.833336871  0.000129911  0.624984284
     0.833123060  0.250008996  0.125038922
     0.833226043  0.250044357  0.625060715
     0.833332196  0.500054282  0.125116215
     0.833877404  0.500162191  0.625279711
     0.833452597  0.750101909  0.125073856
     0.833654276  0.750241602  0.625126161
     0.083163510  0.124844252  0.124888265
     0.083191669  0.124861250  0.624954035
     0.082953907  0.374813534  0.124647962
     0.083079729  0.374827347  0.624867382
     0.083382609  0.624939045  0.124834126
     0.083546447  0.624955867  0.624904591
     0.083380559  0.874955472  0.124971599
     0.083475811  0.874947520  0.624983374
     0.249857493  0.124856211  0.124845925
     0.249851444  0.124861002  0.624904810
     0.249371195  0.374654109  0.124239886
     0.249526677  0.374705328  0.624719617
     0.250004623  0.624858372  0.124828356
     0.250319203  0.624735474  0.624740555
     0.250031904  0.874898205  0.125013458
     0.250130074  0.874883232  0.624996956
     0.416580222  0.124977560  0.124829488
     0.416586669  0.125032980  0.624879437
     0.416325918  0.374881683  0.124845007
     0.416219661  0.375887349  0.623666133
     0.416658903  0.624724011  0.125566103
     0.417103525  0.625023665  0.625068127
     0.416695424  0.874909460  0.125088237
     0.416762864  0.874992910  0.625056694
     0.583244670  0.125059491  0.124934806
     0.583233418  0.125203981  0.624922194
     0.583010385  0.375130035  0.125571828
     0.583528006  0.375330515  0.625081269
     0.583401895  0.624992769  0.125371580
     0.584375661  0.625876815  0.625888907
     0.583346258  0.875012343  0.125091711
     0.583454944  0.875169184  0.625100801
     0.749874335  0.125053438  0.125002938
     0.749896557  0.125160617  0.624996615
     0.749768212  0.375102318  0.125362972
     0.750161332  0.375140855  0.625217465
     0.750153472  0.625124082  0.125263523
     0.750626827  0.625376556  0.625369941
     0.750026382  0.875083956  0.125044795
     0.750173242  0.875268750  0.625079804
     0.916514109  0.124956603  0.124966221
     0.916558300  0.124995275  0.625008958
     0.916450044  0.374959025  0.124977263
     0.916638819  0.374983615  0.625063779
     0.916777860  0.625064847  0.125052503
     0.917025004  0.625131044  0.625112027
     0.916712938  0.875053682  0.124991906
     0.916809582  0.875109273  0.625019879
     0.999851117  0.083221560  0.458301843
     0.999930081  0.083275757  0.958302233
     0.999596388  0.333152179  0.458235926
     0.999823835  0.333249058  0.958227559
     0.000166546  0.583339776  0.458269400
     0.000127830  0.583342122  0.958305786
     0.000147901  0.833349428  0.458312864
     0.000101799  0.833360868  0.958342608
     0.166467061  0.083041903  0.458251428
     0.166617850  0.083246972  0.958251829
     0.165731279  0.332796512  0.458031406
     0.166430718  0.333183439  0.957972620
     0.166600472  0.583065479  0.458084738
     0.166805450  0.583233849  0.958051770
     0.166854337  0.833128043  0.458296986
     0.166745037  0.833286192  0.958305674
     0.333201306  0.083192507  0.458213588
     0.333314800  0.083313275  0.958218616
     0.331299550  0.331717991  0.457518885
     0.333216352  0.333285128  0.958012229
     0.334040512  0.582166763  0.457672143
     0.333522242  0.583182847  0.958090160
     0.333565777  0.833058099  0.458340349
     0.333394519  0.833254850  0.958395965
     0.499891768  0.083409639  0.458259338
     0.499974143  0.083393631  0.958234337
     0.499176455  0.334393578  0.457687560
     0.499920540  0.333515492  0.958097423
     0.500070596  0.583324310  0.958597971
     0.500109565  0.833380593  0.458421351
     0.500036982  0.833303496  0.958525757
     0.666517289  0.083572653  0.458297692
     0.666621768  0.083408522  0.958308438
     0.666342646  0.334016975  0.458378154
     0.666551217  0.333441830  0.958581011
     0.668004331  0.584063120  0.458613856
     0.666947083  0.583501471  0.958880265
     0.666956695  0.833704086  0.458421310
     0.666729326  0.833416227  0.958456445
     0.833199324  0.083455861  0.458319679
     0.833267389  0.083357042  0.958326091
     0.833180419  0.333359283  0.458404814
     0.833208427  0.333364957  0.958494178
     0.833912167  0.583575109  0.458473765
     0.833551748  0.583446053  0.958604994
     0.833558471  0.833564612  0.458366587
     0.833435414  0.833435185  0.958401359
     0.082941723  0.208038346  0.458216604
     0.083181738  0.208218526  0.958201885
     0.082649200  0.458108638  0.458088297
     0.083269567  0.458259592  0.958161095
     0.083516248  0.708270111  0.458252944
     0.083485937  0.708320720  0.958259966
     0.083353235  0.958187737  0.458310372
     0.083354899  0.958296661  0.958321357
     0.249364166  0.207732161  0.458079762
     0.249886761  0.208250937  0.958146899
     0.247471837  0.457536139  0.457518844
     0.249934800  0.458237977  0.958059978
     0.250368715  0.707875202  0.458230461
     0.250128616  0.708246757  0.958261295
     0.250052385  0.958143159  0.458323439
     0.250025772  0.958272612  0.958333009
     0.416308607  0.208282714  0.458107462
     0.416599224  0.208421529  0.958053396
     0.416684548  0.458336539  0.958175687
     0.417221663  0.707839182  0.458374865
     0.416740944  0.708240035  0.958573741
     0.416676837  0.958289721  0.458326516
     0.416671867  0.958312935  0.958352184
     0.583014623  0.208793218  0.458232896
     0.583268903  0.208443988  0.958248412
     0.583334931  0.458402480  0.958583284
     0.584163408  0.709179551  0.458590726
     0.583456282  0.708384824  0.958619484
     0.583341220  0.958459542  0.458335830
     0.583324802  0.958382594  0.958353638
     0.749759942  0.208607365  0.458357912
     0.749892531  0.208391269  0.958393385
     0.751089426  0.458587054  0.458602151
     0.750054503  0.458418239  0.958608258
     0.750525538  0.708761144  0.458478553
     0.750198768  0.708482970  0.958595872
     0.750034984  0.958562026  0.458337753
     0.750007252  0.958416769  0.958363512
     0.916435820  0.208285060  0.458318160
     0.916526504  0.208298469  0.958331610
     0.916777665  0.458357227  0.458373795
     0.916662015  0.458338136  0.958389088
     0.916966936  0.708482107  0.458368195
     0.916820787  0.708411562  0.958400416
     0.916678826  0.958392488  0.458321391
     0.916672515  0.958365386  0.958333318
     0.999764047  0.166529367  0.291584348
     0.999905567  0.166596185  0.791641061
     0.999631786  0.416541965  0.291466304
     0.999988682  0.416626045  0.791632162
     0.000115351  0.666681495  0.291598716
     0.000235232  0.666714302  0.791683528
     0.000031136  0.916641867  0.291634278
     0.000086643  0.916688426  0.791664786
     0.166321029  0.166336724  0.291460726
     0.166569418  0.166563161  0.791571942
     0.165743489  0.416299745  0.291036353
     0.166593751  0.416554122  0.791472477
     0.166699605  0.666539488  0.291540883
     0.166909673  0.666572511  0.791517785
     0.166707873  0.916521500  0.291670626
     0.166743694  0.916609119  0.791670294
     0.333071109  0.166454203  0.291452441
     0.333266662  0.166681666  0.791495331
     0.331298589  0.415598755  0.289732646
     0.333334917  0.416642964  0.791361364
     0.333381180  0.666444896  0.291727157
     0.333560263  0.666578937  0.791565313
     0.333367413  0.916529681  0.291702643
     0.333376606  0.916629535  0.791692378
     0.499850029  0.166675803  0.291548199
     0.499958491  0.166820683  0.791495607
     0.499171700  0.416609676  0.293236550
     0.500095220  0.417158018  0.791069893
     0.500121323  0.666384067  0.292555095
     0.500250908  0.666784207  0.791937032
     0.500025271  0.916660879  0.291699182
     0.500038879  0.916711088  0.791737122
     0.666491525  0.166795957  0.291691668
     0.666616642  0.166816061  0.791658034
     0.666350175  0.416934041  0.292536629
     0.666861948  0.416829144  0.791959903
     0.666930755  0.666866819  0.291848344
     0.667117453  0.666998551  0.792188573
     0.666691554  0.916782155  0.291686147
     0.666721562  0.916810880  0.791743692
     0.833120123  0.166702626  0.291681629
     0.833246492  0.166704877  0.791696702
     0.833187463  0.416700878  0.291733440
     0.833430862  0.416738298  0.791863161
     0.833542485  0.666823506  0.291769084
     0.833652363  0.666853113  0.791900894
     0.833354194  0.916766579  0.291658643
     0.833406055  0.916797218  0.791708083
     0.083227402  0.041502470  0.291596412
     0.083326080  0.041602831  0.791643203
     0.082865259  0.291394559  0.291398408
     0.083179231  0.291542664  0.791508858
     0.083158548  0.541551066  0.291439395
     0.083493637  0.541616294  0.791525638
     0.083438642  0.791615761  0.291606837
     0.083524275  0.791655611  0.791620956
     0.249915591  0.041480287  0.291565313
     0.249991992  0.041603222  0.791603636
     0.249218803  0.291056649  0.291044143
     0.249866916  0.291571402  0.791431598
     0.249582688  0.541398107  0.291293896
     0.250349781  0.541435331  0.791098294
     0.250096006  0.791485906  0.291655092
     0.250152345  0.791584544  0.791617613
     0.416595349  0.041612369  0.291587140
     0.416652844  0.041697338  0.791602604
     0.416193700  0.291405101  0.291324168
     0.416596262  0.291982862  0.791083792
     0.416206558  0.541067704  0.293219430
     0.417213235  0.541498549  0.791060095
     0.416773930  0.791510809  0.291808186
     0.416781081  0.791648799  0.791797354
     0.583273859  0.041727879  0.291620606
     0.583317355  0.041788561  0.791604161
     0.583093174  0.291790003  0.291721006
     0.583329946  0.291870214  0.791557901
     0.583551768  0.541808692  0.292070502
     0.584148102  0.542095817  0.792801076
     0.583441205  0.791726403  0.291761236
     0.583498890  0.791801256  0.791858678
     0.749905563  0.041766022  0.291632324
     0.749979075  0.041783811  0.791634461
     0.749753602  0.291805977  0.291788583
     0.749968273  0.291767425  0.791792804
     0.750225465  0.541836656  0.291816146
     0.750509919  0.541896522  0.792189816
     0.750160409  0.791836562  0.291708575
     0.750240608  0.791889015  0.791845585
[...]
 196      -0.002     0.002     0.003       1.210
 197      -0.005    -0.004     0.005       0.155
 198      -0.005    -0.004     0.007       0.147
 199      -0.014     0.010    -0.021      -1.158
 200       0.020    -0.015    -0.023       1.537
 201      -0.007    -0.004     0.008       0.371
 202      -0.010    -0.007     0.011       0.307
 203      -0.002    -0.001     0.004       0.285
 204      -0.003    -0.001     0.004       0.445
 205      -0.004    -0.001     0.013       0.283
 206      -0.010     0.008    -0.013      -1.399
 207       0.344     0.339     0.597      -0.009
 208       0.057     0.035     0.169      -0.134
 209      -0.010    -0.007     0.018       0.153
 210       0.006     0.001     0.058      -0.079
 211      -0.004    -0.001     0.006       0.468
 212      -0.004    -0.003     0.008       0.117
 213      -0.008    -0.004     0.009       0.466
 214      -0.011    -0.009     0.012       0.206
 215      -0.015    -0.010     0.057       0.103
 216       0.367     0.357     0.602      -0.017
 217      -0.016     0.015    -0.021      -1.485
 218      -0.012     0.009     0.061       0.358
 219      -0.005    -0.001     0.006       0.559
 220      -0.005    -0.004     0.009       0.193
 221      -0.004    -0.002     0.006       0.294
 222      -0.003    -0.003     0.012       0.046
 223      -0.015     0.015    -0.022      -1.369
 224      -0.012     0.009     0.062       0.333
 225       0.004    -0.001     0.025      -0.235
 226       0.007     0.005     0.081      -0.033
 227      -0.003    -0.001     0.005       0.447
 228      -0.004    -0.003     0.007       0.065
 229       0.002    -0.001    -0.002       1.399
 230      -0.003    -0.001     0.004       0.620
 231      -0.007     0.001     0.011       0.804
 232      -0.010    -0.006     0.016       0.213
 233       0.005    -0.004     0.008      -1.157
 234       0.020     0.017     0.056      -0.043
 235      -0.002    -0.001     0.003       0.409
 236      -0.003    -0.000     0.005       0.596
 237       0.002    -0.001    -0.002       1.479
 238      -0.003    -0.000     0.003       0.720
 239      -0.006    -0.002     0.009       0.430
 240      -0.006    -0.002     0.011       0.424
 241      -0.005     0.002     0.015       0.458
 242       0.010    -0.009    -0.016       1.202
 243      -0.002    -0.001     0.003       0.401
 244      -0.003     0.001     0.005       0.749
 245      -0.003    -0.001     0.006       0.304
 246      -0.004    -0.003     0.006       0.131
 247      -0.016     0.009    -0.019      -1.328
 248       0.020    -0.015    -0.020       1.737
 249      -0.019    -0.016     0.020       0.156
 250      -0.026    -0.018     0.044       0.181
 251      -0.004    -0.002     0.006       0.311
 252      -0.004    -0.004     0.011       0.091
 253      -0.005    -0.002     0.007       0.498
 254      -0.006    -0.004     0.008       0.250
 255      -0.019    -0.017     0.020       0.109
 256      -0.019    -0.013     0.049       0.117
 257      -0.013    -0.008     0.059       0.086
 258       0.358     0.350     0.592      -0.014
 259      -0.007    -0.003     0.009       0.494
 260      -0.004    -0.003     0.019       0.052
 261      -0.004    -0.001     0.006       0.498
 262      -0.004    -0.003     0.008       0.185
 263      -0.009    -0.007     0.018       0.116
 264       0.010     0.007     0.064      -0.048
 265       0.007    -0.000     0.068      -0.117
 266       0.896     0.856     1.562      -0.026
 267      -0.006    -0.001     0.009       0.497
 268      -0.007    -0.007     0.015       0.021
 269      -0.002    -0.001     0.003       0.219
 270      -0.003    -0.001     0.005       0.307
 271      -0.006    -0.002     0.008       0.472
 272      -0.002     0.001     0.021       0.147
 273       0.008    -0.002     0.027      -0.361
 274       0.007     0.002     0.079      -0.060
 275      -0.003    -0.001     0.005       0.316
 276      -0.002    -0.001     0.016       0.085
 277       0.002    -0.000    -0.002       0.798
 278       0.002     0.001    -0.003       0.706
 279       0.004    -0.001    -0.005       0.978
 280      -0.004    -0.001     0.008       0.459
 281      -0.006     0.002     0.009       0.937
 282      -0.006    -0.001     0.018       0.280
 283      -0.002     0.000     0.002       0.779
 284       0.003     0.000     0.011      -0.276
 285      -0.002     0.000     0.002       0.804
 286       0.003    -0.000    -0.003       0.855
 287       0.003    -0.000     0.012      -0.235
 288      -0.004    -0.002     0.006       0.348
 289       0.007     0.000    -0.008       0.915
 290       0.002    -0.002     0.024      -0.170
 291       0.002     0.000    -0.002       0.930
 292       0.004    -0.001    -0.005       0.917
 293      -0.002    -0.001     0.003       0.166
 294      -0.003    -0.001     0.005       0.330
 295      -0.003    -0.000     0.015       0.212
 296      -0.008    -0.005     0.014       0.187
 297      -0.010    -0.004     0.014       0.406
 298      -0.003     0.003     0.050       0.122
 299      -0.002    -0.001     0.006       0.218
 300      -0.005    -0.003     0.009       0.241
 301      -0.004    -0.001     0.005       0.522
 302      -0.004    -0.003     0.008       0.115
 303      -0.008    -0.005     0.014       0.179
 304       0.002    -0.002     0.047      -0.086
 305       0.008     0.001     0.056      -0.127
 306       0.358     0.352     0.601      -0.009
 307      -0.004     0.000     0.011       0.412
 308      -0.010    -0.009     0.018       0.055
 309      -0.004    -0.001     0.006       0.579
 310      -0.005    -0.003     0.009       0.164
 311       0.002    -0.002     0.019      -0.213
 312       0.015     0.007     0.059      -0.128
 313       0.014     0.003     0.065      -0.175
 314      -0.005     0.001     0.014       0.448
 315      -0.019    -0.017     0.021       0.090
 316      -0.003    -0.001     0.004       0.350
 317      -0.004    -0.003     0.006       0.117
 318      -0.004    -0.000     0.009       0.433
 319      -0.011    -0.010     0.017       0.062
 320      -0.016    -0.008     0.018       0.423
 321      -0.037    -0.027     0.086       0.116
 322      -0.005    -0.001     0.007       0.535
 323      -0.017     0.010    -0.019      -1.448
 324      -0.002    -0.000     0.003       0.488
 325       0.003    -0.001    -0.003       1.155
 326      -0.003     0.001     0.005       0.795
 327      -0.005    -0.003     0.009       0.290
 328       0.009     0.001    -0.009       0.892
 329      -0.017    -0.013     0.018       0.247
 330       0.003    -0.001    -0.003       1.262
 331      -0.006    -0.004     0.009       0.235
 332      -0.001    -0.000     0.005       0.179
 333      -0.003    -0.001     0.005       0.494
 334      -0.006     0.001     0.016       0.414
 335      -0.011    -0.004     0.016       0.397
 336      -0.005    -0.000     0.006       0.665
 337      -0.007    -0.002     0.014       0.309
 338      -0.001    -0.000     0.002       0.423
 339       0.003    -0.000    -0.004       0.862
 340      -0.004    -0.001     0.006       0.408
 341       0.003     0.002     0.017      -0.012
 342       0.072     0.060     0.163      -0.070
 343      -0.016     0.012     0.064       0.443
 344       0.002    -0.001     0.020      -0.147
 345       0.023     0.013     0.064      -0.157
 346      -0.003    -0.001     0.004       0.452
 347      -0.004    -0.003     0.007       0.094
 348      -0.004    -0.001     0.007       0.432
 349      -0.007    -0.006     0.013       0.128
 350       0.005    -0.000     0.054      -0.100
 351       0.361     0.354     0.601      -0.012
 352      -0.018     0.015    -0.021      -1.603
 353       0.054     0.037     0.168      -0.103
 354      -0.005    -0.001     0.006       0.731
 355      -0.006    -0.005     0.011       0.133
 356      -0.003    -0.001     0.006       0.432
 357      -0.006    -0.005     0.011       0.089
 358      -0.017     0.015    -0.022      -1.479
 359       0.046     0.029     0.160      -0.105
 360      -0.014    -0.009     0.018       0.272
 361      -0.048    -0.036     0.074       0.150
 362       0.005    -0.001    -0.005       1.150
 363      -0.006    -0.005     0.010       0.140
 364      -0.001    -0.001     0.003       0.110
 365      -0.004    -0.002     0.006       0.327
 366      -0.008     0.000     0.012       0.654
 367      -0.020    -0.016     0.021       0.188
 368       0.011     0.002     0.023      -0.393
 369       0.019     0.017     0.067      -0.035
 370      -0.002    -0.001     0.003       0.340
 371       0.005    -0.004    -0.005       1.654
 372       0.002    -0.001     0.003      -0.883
 373       0.002     0.001    -0.003       0.352
 374      -0.006     0.001     0.007       1.001
 375      -0.009    -0.004     0.011       0.433
 376       0.004     0.000    -0.006       0.686
 377      -0.005    -0.002     0.014       0.252
 378       0.002    -0.000    -0.002       1.000
 379       0.003     0.000    -0.004       0.769
 380      -0.003     0.001     0.004       1.064
 381      -0.001     0.000     0.002       0.761
 382      -0.005    -0.003     0.017       0.125
 383      -0.005     0.002     0.005       1.286
 384      -0.001     0.000     0.023       0.049
 385       0.005     0.002    -0.006       0.427
 386       0.003    -0.002     0.004      -1.387
 387       0.000     0.000    -0.001       0.297
 388       0.009     0.006     0.027      -0.114
 389      -0.002    -0.000     0.002       0.666
 390       0.008     0.006     0.081      -0.019
 391       0.009    -0.001     0.025      -0.415
 392       0.002    -0.002     0.050      -0.089
 393       0.005     0.000    -0.008       0.518
 394       0.006    -0.003    -0.006       1.542
 395       0.002    -0.000    -0.002       1.138
 396      -0.001    -0.000     0.017       0.058
 397      -0.004     0.001     0.004       1.179
 398       0.900     0.863     1.560      -0.024
 399       0.008     0.003     0.029      -0.200
 400       0.356     0.348     0.593      -0.015
 401      -0.012    -0.008     0.016       0.239
 402      -0.006    -0.005     0.015       0.030
 403       0.003     0.001    -0.005       0.519
 404      -0.004    -0.003     0.015       0.037
 405       0.004     0.001    -0.005       0.792
 406       0.348     0.340     0.581      -0.013
 407      -0.012    -0.009     0.016       0.206
 408       0.016    -0.015    -0.017       1.812
 409      -0.012     0.011    -0.013      -1.774
 410       0.005     0.002    -0.005       0.549
 411      -0.006    -0.004     0.007       0.235
 412      -0.003    -0.000     0.003       0.815
 413      -0.023    -0.017     0.044       0.115
 414       0.008    -0.002    -0.008       1.219
 415      -0.048    -0.029     0.078       0.236
 416       0.054     0.047     0.104      -0.073
 417       0.050     0.049     0.096      -0.011
 418      -0.003     0.002     0.005       0.950
 419      -0.003     0.001     0.006       0.620
 420      -0.001    -0.000     0.002       0.468
 421      -0.011     0.010    -0.013      -1.543
 422       0.005     0.002    -0.005       0.520
 423       0.016    -0.014    -0.017       1.785
 424       0.003     0.000    -0.009       0.306
 425       0.004    -0.003    -0.006       1.055
 426       0.001    -0.001    -0.002       1.444
 427      -0.003    -0.001     0.015       0.149
 428      -0.002     0.001     0.003       0.919
 429       0.151     0.140     0.218      -0.050
 430       0.005     0.004    -0.008       0.127
 431      -0.004    -0.000     0.011       0.328
 432       0.002     0.001    -0.003       0.352
 433       0.002    -0.002     0.006      -0.599
 434      -0.001    -0.001     0.002       0.174
 435       0.079     0.074     0.171      -0.033
 436       0.004     0.001    -0.005       0.489
 437       0.973     0.931     1.603      -0.026
 438       0.011     0.002     0.030      -0.297
 439      -0.017     0.014    -0.019      -1.630
 440       0.004     0.000    -0.005       0.618
 441      -0.002    -0.001     0.009       0.113
 442      -0.003    -0.001     0.004       0.628
 443      -0.005    -0.000     0.046       0.086
 444       0.005     0.000    -0.008       0.608
 445      -0.018    -0.014     0.023       0.188
 446      -0.018    -0.013     0.049       0.099
 447       0.008    -0.002    -0.009       1.096
 448      -0.006    -0.005     0.009       0.059
 449      -0.004    -0.000     0.005       0.869
 450      -0.018     0.014    -0.020      -1.622
 451       0.004     0.001    -0.006       0.547
 452       0.016    -0.014    -0.018       1.652
 453       0.366     0.364     0.607      -0.003
 454       0.008    -0.001    -0.008       1.138
 455      -0.005    -0.004     0.009       0.018
 456      -0.004    -0.000     0.004       0.768
 457      -0.007    -0.004     0.012       0.249
 458       0.002     0.001    -0.003       0.551
 459       0.430     0.426     0.648      -0.006
 460       0.008     0.000    -0.010       0.781
 461      -0.017     0.009    -0.019      -1.388
 462       0.002    -0.001    -0.006       0.523
 463       0.007     0.005     0.019      -0.104
 464      -0.002    -0.001     0.003       0.282
 465       0.002    -0.002     0.008      -0.490
 466      -0.001     0.000     0.003       0.323
 467       0.121     0.112     0.145      -0.063
 468      -0.006     0.003     0.007       1.406
 469      -0.004    -0.001     0.009       0.301
 470       0.002     0.000    -0.003       0.663
 471       0.003     0.000    -0.004       0.658
 472      -0.001    -0.000     0.002       0.576
 473       0.003     0.000     0.011      -0.276
 474      -0.002     0.000     0.002       0.779
 475      -0.006    -0.001     0.018       0.280
 476      -0.006     0.002     0.009       0.937
 477      -0.004    -0.001     0.008       0.459
 478       0.004    -0.001    -0.005       0.978
 479       0.002     0.001    -0.003       0.706
 480       0.002    -0.000    -0.002       0.798
 481      -0.002    -0.001     0.016       0.085
 482      -0.003    -0.001     0.005       0.316
 483       0.007     0.002     0.079      -0.060
 484       0.008    -0.002     0.027      -0.361
 485      -0.002     0.001     0.021       0.147
 486      -0.006    -0.002     0.008       0.472
 487      -0.003    -0.001     0.005       0.307
 488      -0.002    -0.001     0.003       0.219
 489      -0.007    -0.007     0.015       0.021
 490      -0.006    -0.001     0.009       0.497
 491       0.896     0.856     1.562      -0.026
 492       0.007    -0.000     0.068      -0.117
 493       0.010     0.007     0.064      -0.048
 494      -0.009    -0.007     0.018       0.115
 495      -0.004    -0.003     0.008       0.185
 496      -0.004    -0.001     0.006       0.498
 497      -0.004    -0.003     0.019       0.052
 498      -0.007    -0.003     0.009       0.494
 499       0.358     0.350     0.592      -0.014
 500      -0.013    -0.008     0.059       0.086
 501      -0.019    -0.013     0.049       0.117
 502      -0.019    -0.017     0.020       0.109
 503      -0.006    -0.004     0.008       0.250
 504      -0.005    -0.002     0.007       0.498
 505      -0.004    -0.004     0.011       0.091
 506      -0.004    -0.002     0.006       0.311
 507      -0.026    -0.018     0.044       0.181
 508      -0.019    -0.016     0.020       0.156
 509       0.020    -0.015    -0.020       1.737
 510      -0.016     0.009    -0.019      -1.328
 511      -0.004    -0.003     0.006       0.131
 512      -0.003    -0.001     0.006       0.304
 513      -0.003     0.001     0.005       0.749
 514      -0.002    -0.001     0.003       0.401
 515       0.010    -0.009    -0.016       1.202
 516      -0.005     0.002     0.015       0.458
 517      -0.006    -0.002     0.011       0.424
 518      -0.006    -0.002     0.009       0.430
 519      -0.003    -0.000     0.003       0.720
 520       0.002    -0.001    -0.002       1.479
 521      -0.003    -0.000     0.005       0.596
 522      -0.002    -0.001     0.003       0.409
 523       0.020     0.017     0.056      -0.043
 524       0.005    -0.004     0.008      -1.157
 525      -0.010    -0.006     0.015       0.213
 526      -0.007     0.001     0.011       0.804
 527      -0.003    -0.001     0.004       0.620
 528       0.002    -0.001    -0.002       1.399
 529      -0.004    -0.003     0.007       0.065
 530      -0.003    -0.001     0.005       0.447
 531       0.007     0.005     0.081      -0.033
 532       0.004    -0.001     0.025      -0.235
 533      -0.012     0.009     0.062       0.333
 534      -0.015     0.015    -0.022      -1.369
 535      -0.003    -0.003     0.012       0.046
 536      -0.004    -0.002     0.006       0.294
 537      -0.005    -0.004     0.009       0.193
 538      -0.005    -0.001     0.006       0.559
 539      -0.012     0.009     0.061       0.358
 540      -0.016     0.015    -0.021      -1.486
 541       0.367     0.357     0.602      -0.017
 542      -0.015    -0.010     0.057       0.103
 543      -0.011    -0.009     0.012       0.206
 544      -0.008    -0.004     0.009       0.466
 545      -0.004    -0.003     0.008       0.117
 546      -0.004    -0.001     0.006       0.468
 547       0.006     0.001     0.058      -0.079
 548      -0.010    -0.007     0.018       0.153
 549       0.057     0.035     0.169      -0.134
 550       0.344     0.339     0.597      -0.009
 551      -0.010     0.008    -0.013      -1.399
 552      -0.004    -0.001     0.013       0.283
 553      -0.003    -0.001     0.004       0.445
 554      -0.002    -0.001     0.004       0.285
 555      -0.010    -0.007     0.011       0.307
 556      -0.007    -0.004     0.008       0.371
 557       0.020    -0.015    -0.023       1.537
 558      -0.014     0.010    -0.021      -1.158
 559      -0.005    -0.004     0.007       0.147
 560      -0.005    -0.004     0.005       0.155
 561      -0.002     0.002     0.003       1.210
 562       0.002     0.000    -0.002       0.933
 563       0.003    -0.002     0.013      -0.380
 564      -0.004    -0.000     0.005       0.696
 565      -0.010    -0.004     0.011       0.544
 566       0.008    -0.001    -0.008       1.099
 567      -0.003    -0.000     0.003       0.936
 568       0.002    -0.001    -0.003       0.973
 569      24.884    24.881    48.325      -0.000
 570      24.884    24.881    48.325      -0.000
 571      -1.006    -0.660    -1.141      -0.304
 572      -0.997    -0.646    -1.134      -0.310
 573      -1.002    -0.646    -1.140      -0.312
 574      -1.002    -0.646    -1.141      -0.312
 575      -0.997    -0.646    -1.134      -0.310
 576      -1.006    -0.660    -1.141      -0.304
 ---------------------------------------------------------------------



--------------------------------------------------------------------------------------------------------


     LOOP+:  cpu time  576.6251: real time  578.3679
    4ORBIT:  cpu time    0.0000: real time    0.0000

 total amount of memory used by VASP MPI-rank0   135650. kBytes
=======================================================================

   base      :      30000. kBytes
   nonlr-proj:       4918. kBytes
   fftplans  :       8132. kBytes
   grid      :      24015. kBytes
   one-center:        147. kBytes
   wavefun   :      68438. kBytes
 
  
  
 General timing and accounting informations for this job:
 ========================================================
  
                  Total CPU time used (sec):      596.980
                            User time (sec):      594.203
                          System time (sec):        2.778
                         Elapsed time (sec):      599.485
  
                   Maximum memory used (kb):      303096.
                   Average memory used (kb):          N/A
  
                          Minor page faults:       196791
                          Major page faults:            2
                 Voluntary context switches:         5774
