 vasp.6.2.0 18Jan21 (build Apr 30 2021 19:00:08) gamma-only                     
  
 executed on             LinuxIFC date 2022.11.10  11:58:16
 running on   48 total cores
 distrk:  each k-point on   48 cores,    1 groups
 distr:  one band on NCORE=  12 cores,    4 groups


--------------------------------------------------------------------------------------------------------


 INCAR:
   SYSTEM = Diamond
   PREC = Normal
   ISTART = 0
   ICHARG = 11
   ISPIN = 2
   MAGMOM = 568*0.0 2*1.0 6*1.0
   NPAR = 4
   NELECT = 2305
   LHYPERFINE = T
   LEFG = T
   ENCUT = 700
   NELM = 1000
   NELMIN = 4
   EDIFF = 1E-06
   LREAL = Auto
   ALGO = Normal
   EDIFFG = -1E-02
   NSW = 0
   IBRION = 2
   ISIF = 2
   ISYM = 2
   POTIM = 0.5
   ISMEAR = 0
   SIGMA = 0.05
   NEDOS = 1000
   LWAVE = F
   LCHARG = F
   LVHAR = F
   LELF = F

 POTCAR:    PAW_PBE C 08Apr2002                   
 POTCAR:    PAW_PBE N 08Apr2002                   
 POTCAR:    PAW_PBE C 08Apr2002                   
 POTCAR:    PAW_PBE C 08Apr2002                   
   VRHFIN =C: s2p2                                                                                  
   LEXCH  = PE                                                                                      
   EATOM  =   147.1560 eV,   10.8157 Ry                                                             
                                                                                                    
   TITEL  = PAW_PBE C 08Apr2002                                                                     
   LULTRA =        F    use ultrasoft PP ?                                                          
   IUNSCR =        1    unscreen: 0-lin 1-nonlin 2-no                                               
   RPACOR =    1.200    partial core radius                                                         
   POMASS =   12.011; ZVAL   =    4.000    mass and valenz                                          
   RCORE  =    1.500    outmost cutoff radius                                                       
   RWIGS  =    1.630; RWIGS  =    0.863    wigner-seitz radius (au A)                               
   ENMAX  =  400.000; ENMIN  =  300.000 eV                                                          
   ICORE  =        2    local potential                                                             
   LCOR   =        T    correct aug charges                                                         
   LPAW   =        T    paw PP                                                                      
   EAUG   =  644.873                                                                                
   DEXC   =    0.000                                                                                
   RMAX   =    1.529    core radius for proj-oper                                                   
   RAUG   =    1.300    factor for augmentation sphere                                              
   RDEP   =    1.501    radius for radial grids                                                     
   RDEPT  =    1.300    core radius for aug-charge                                                  
                                                                                                    
   Atomic configuration                                                                             
    4 entries                                                                                       
     n  l   j            E        occ.                                                              
     1  0  0.50      -273.3789   2.0000                                                             
     2  0  0.50       -13.7508   2.0000                                                             
     2  1  0.50        -5.2854   2.0000                                                             
     3  2  1.50        -5.4423   0.0000                                                             
   Description                                                                                      
     l       E           TYP  RCUT    TYP  RCUT                                                     
     0    -13.7508458     23  1.200                                                                 
     0     -8.2022199     23  1.200                                                                 
     1     -5.2854383     23  1.500                                                                 
     1     34.0145650     23  1.500                                                                 
     2     -5.4423304      7  1.500                                                                 
  local pseudopotential read in
  partial core-charges read in
  partial kinetic energy density read in
  atomic valenz-charges read in
  non local Contribution for L=           0  read in
    real space projection operators read in
  non local Contribution for L=           0  read in
    real space projection operators read in
  non local Contribution for L=           1  read in
    real space projection operators read in
  non local Contribution for L=           1  read in
    real space projection operators read in
    PAW grid and wavefunctions read in
 
   number of l-projection  operators is LMAX  =           4
   number of lm-projection operators is LMMAX =           8
 
 POTCAR:    PAW_PBE N 08Apr2002                   
   VRHFIN =N: s2p3                                                                                  
   LEXCH  = PE                                                                                      
   EATOM  =   264.5486 eV,   19.4438 Ry                                                             
                                                                                                    
   TITEL  = PAW_PBE N 08Apr2002                                                                     
   LULTRA =        F    use ultrasoft PP ?                                                          
   IUNSCR =        1    unscreen: 0-lin 1-nonlin 2-no                                               
   RPACOR =    1.200    partial core radius                                                         
   POMASS =   14.001; ZVAL   =    5.000    mass and valenz                                          
   RCORE  =    1.500    outmost cutoff radius                                                       
   RWIGS  =    1.400; RWIGS  =    0.741    wigner-seitz radius (au A)                               
   ENMAX  =  400.000; ENMIN  =  300.000 eV                                                          
   ICORE  =        2    local potential                                                             
   LCOR   =        T    correct aug charges                                                         
   LPAW   =        T    paw PP                                                                      
   EAUG   =  627.112                                                                                
   DEXC   =    0.000                                                                                
   RMAX   =    1.529    core radius for proj-oper                                                   
   RAUG   =    1.300    factor for augmentation sphere                                              
   RDEP   =    1.514    radius for radial grids                                                     
   RDEPT  =    1.338    core radius for aug-charge                                                  
                                                                                                    
   Atomic configuration                                                                             
    4 entries                                                                                       
     n  l   j            E        occ.                                                              
     1  0  0.50      -384.7179   2.0000                                                             
     2  0  0.50       -18.5828   2.0000                                                             
     2  1  0.50        -7.0898   3.0000                                                             
     3  2  1.50        -6.8029   0.0000                                                             
   Description                                                                                      
     l       E           TYP  RCUT    TYP  RCUT                                                     
     0    -18.5828119     23  1.200                                                                 
     0    -13.5018863     23  1.200                                                                 
     1     -7.0897853     23  1.500                                                                 
     1      9.5240782     23  1.500                                                                 
     2     -6.8029130      7  1.500                                                                 
  local pseudopotential read in
  partial core-charges read in
  partial kinetic energy density read in
  atomic valenz-charges read in
  non local Contribution for L=           0  read in
    real space projection operators read in
  non local Contribution for L=           0  read in
    real space projection operators read in
  non local Contribution for L=           1  read in
    real space projection operators read in
  non local Contribution for L=           1  read in
    real space projection operators read in
    PAW grid and wavefunctions read in
 
   number of l-projection  operators is LMAX  =           4
   number of lm-projection operators is LMMAX =           8
 
 POTCAR:    PAW_PBE C 08Apr2002                   
   VRHFIN =C: s2p2                                                                                  
   LEXCH  = PE                                                                                      
   EATOM  =   147.1560 eV,   10.8157 Ry                                                             
                                                                                                    
   TITEL  = PAW_PBE C 08Apr2002                                                                     
   LULTRA =        F    use ultrasoft PP ?                                                          
   IUNSCR =        1    unscreen: 0-lin 1-nonlin 2-no                                               
   RPACOR =    1.200    partial core radius                                                         
   POMASS =   12.011; ZVAL   =    4.000    mass and valenz                                          
   RCORE  =    1.500    outmost cutoff radius                                                       
   RWIGS  =    1.630; RWIGS  =    0.863    wigner-seitz radius (au A)                               
   ENMAX  =  400.000; ENMIN  =  300.000 eV                                                          
   ICORE  =        2    local potential                                                             
   LCOR   =        T    correct aug charges                                                         
   LPAW   =        T    paw PP                                                                      
   EAUG   =  644.873                                                                                
   DEXC   =    0.000                                                                                
   RMAX   =    1.529    core radius for proj-oper                                                   
   RAUG   =    1.300    factor for augmentation sphere                                              
   RDEP   =    1.501    radius for radial grids                                                     
   RDEPT  =    1.300    core radius for aug-charge                                                  
                                                                                                    
   Atomic configuration                                                                             
    4 entries                                                                                       
     n  l   j            E        occ.                                                              
     1  0  0.50      -273.3789   2.0000                                                             
     2  0  0.50       -13.7508   2.0000                                                             
     2  1  0.50        -5.2854   2.0000                                                             
     3  2  1.50        -5.4423   0.0000                                                             
   Description                                                                                      
     l       E           TYP  RCUT    TYP  RCUT                                                     
     0    -13.7508458     23  1.200                                                                 
     0     -8.2022199     23  1.200                                                                 
     1     -5.2854383     23  1.500                                                                 
     1     34.0145650     23  1.500                                                                 
     2     -5.4423304      7  1.500                                                                 
  local pseudopotential read in
  partial core-charges read in
  partial kinetic energy density read in
  atomic valenz-charges read in
  non local Contribution for L=           0  read in
    real space projection operators read in
  non local Contribution for L=           0  read in
    real space projection operators read in
  non local Contribution for L=           1  read in
    real space projection operators read in
  non local Contribution for L=           1  read in
    real space projection operators read in
    PAW grid and wavefunctions read in
 
   number of l-projection  operators is LMAX  =           4
   number of lm-projection operators is LMMAX =           8
 
 Optimization of the real space projectors (new method)

 maximal supplied QI-value         = 25.13
 optimisation between [QCUT,QGAM] = [ 13.32, 26.89] = [ 49.69,202.52] Ry 
 Optimized for a Real-space Cutoff    1.01 Angstroem

   l    n(q)    QCUT    max X(q) W(low)/X(q) W(high)/X(q)  e(spline) 
   0      8    13.321   115.676    0.29E-03    0.42E-03    0.11E-06
   0      8    13.321    87.132    0.29E-03    0.42E-03    0.11E-06
   1      8    13.321     4.429    0.39E-03    0.33E-03    0.98E-07
   1      8    13.321     2.733    0.30E-03    0.26E-03    0.97E-07
 Optimization of the real space projectors (new method)

 maximal supplied QI-value         = 25.13
 optimisation between [QCUT,QGAM] = [ 13.32, 26.89] = [ 49.69,202.52] Ry 
 Optimized for a Real-space Cutoff    1.01 Angstroem

   l    n(q)    QCUT    max X(q) W(low)/X(q) W(high)/X(q)  e(spline) 
   0      8    13.321    79.467    0.28E-03    0.38E-03    0.11E-06
   0      8    13.321    66.151    0.27E-03    0.38E-03    0.11E-06
   1      8    13.321    23.070    0.40E-03    0.78E-03    0.29E-06
   1      8    13.321    16.668    0.40E-03    0.79E-03    0.30E-06
 Optimization of the real space projectors (new method)

 maximal supplied QI-value         = 25.13
 optimisation between [QCUT,QGAM] = [ 13.32, 26.89] = [ 49.69,202.52] Ry 
 Optimized for a Real-space Cutoff    1.01 Angstroem

   l    n(q)    QCUT    max X(q) W(low)/X(q) W(high)/X(q)  e(spline) 
   0      8    13.321   115.676    0.29E-03    0.42E-03    0.11E-06
   0      8    13.321    87.132    0.29E-03    0.42E-03    0.11E-06
   1      8    13.321     4.429    0.39E-03    0.33E-03    0.98E-07
   1      8    13.321     2.733    0.30E-03    0.26E-03    0.97E-07
  PAW_PBE C 08Apr2002                   :
 energy of atom  1       EATOM= -147.1560
 kinetic energy error for atom=    0.0032 (will be added to EATOM!!)
  PAW_PBE N 08Apr2002                   :
 energy of atom  2       EATOM= -264.5486
 kinetic energy error for atom=    0.0061 (will be added to EATOM!!)
  PAW_PBE C 08Apr2002                   :
 energy of atom  3       EATOM= -147.1560
 kinetic energy error for atom=    0.0032 (will be added to EATOM!!)
 
 
 POSCAR: Autosave
  positions in direct lattice
  velocities in cartesian coordinates
 exchange correlation table for  LEXCH =        8
   RHO(1)=    0.500       N(1)  =     2000
   RHO(2)=  100.500       N(2)  =     4000
 


--------------------------------------------------------------------------------------------------------


 ion  position               nearest neighbor table
   1  0.000  0.000  0.000- 473 1.54 285 1.54 379 1.54 433 1.55
   2  1.000  0.000  0.500- 472 1.54 378 1.54 286 1.54 432 1.55
   3  1.000  0.250  0.000- 467 1.54 287 1.54 381 1.54 427 1.55
   4  1.000  0.250  0.500- 466 1.54 288 1.54 380 1.54 426 1.55
   5  0.000  0.500  0.000- 289 1.54 469 1.54 429 1.54 383 1.54
   6  1.000  0.500  0.500- 428 1.54 468 1.54 290 1.54 382 1.54
   7  0.000  0.750  0.000- 471 1.54 291 1.54 385 1.54 431 1.55
   8  0.000  0.750  0.500- 470 1.54 384 1.54 292 1.54 430 1.54
   9  0.167  1.000  0.000- 433 1.54 293 1.54 387 1.54 441 1.55
  10  0.167  1.000  0.500- 432 1.54 294 1.54 386 1.54 440 1.55
  11  0.167  0.250  1.000- 427 1.54 295 1.54 389 1.54 435 1.54
  12  0.166  0.250  0.500- 426 1.54 388 1.54 296 1.54 434 1.55
  13  0.167  0.500  1.000- 297 1.54 429 1.54 437 1.54 391 1.54
  14  0.166  0.500  0.500- 428 1.54 436 1.54 298 1.54 390 1.54
  15  0.167  0.750  1.000- 431 1.54 299 1.54 393 1.54 439 1.55
  16  0.167  0.750  0.500- 430 1.54 300 1.54 392 1.54 438 1.54
  17  0.333  1.000  0.000- 301 1.54 441 1.54 449 1.54 395 1.54
  18  0.333  1.000  0.500- 440 1.54 302 1.54 448 1.54 394 1.54
  19  0.333  0.250  1.000- 303 1.54 443 1.54 397 1.54 435 1.54
  20  0.333  0.250  0.500- 434 1.54 396 1.54 442 1.54 304 1.54
  21  0.333  0.500  1.000- 399 1.54 445 1.54 305 1.55 437 1.55
  22  0.332  0.500  0.499- 436 1.54 398 1.54 444 1.55 306 1.55
  23  0.334  0.750  1.000- 439 1.54 307 1.54 401 1.54 447 1.55
  24  0.333  0.750  0.500- 308 1.54 446 1.54 438 1.55 400 1.55
  25  0.500  1.000  0.000- 309 1.54 457 1.54 449 1.54 403 1.55
  26  0.500  1.000  0.500- 310 1.54 456 1.54 448 1.54 402 1.55
  27  0.500  0.250  1.000- 451 1.54 443 1.54 311 1.55 405 1.55
  28  0.500  0.250  0.500- 404 1.54 312 1.54 450 1.54 442 1.55
  29  0.500  0.500  1.000- 453 1.54 407 1.54 445 1.55 313 1.55
  30  0.500  0.750  0.000- 455 1.54 409 1.54 447 1.54 314 1.55
  31  0.500  0.750  0.500- 454 1.54 315 1.54 446 1.55 408 1.55
  32  0.667  0.000  0.000- 316 1.54 457 1.54 465 1.54 411 1.55
  33  0.667  0.000  0.500- 317 1.54 464 1.54 456 1.54 410 1.54
  34  0.667  0.250  1.000- 459 1.54 318 1.54 451 1.54 413 1.55
  35  0.666  0.250  0.500- 319 1.54 412 1.54 458 1.55 450 1.55
  36  0.667  0.500  0.000- 461 1.54 415 1.54 320 1.55 453 1.55
  37  0.666  0.501  0.501- 414 1.54 574 1.55 452 1.55 460 1.56
  38  0.667  0.750  0.000- 321 1.54 417 1.54 463 1.54 455 1.54
  39  0.667  0.750  0.500- 462 1.54 322 1.54 416 1.54 454 1.55
  40  0.833  0.000  0.000- 465 1.54 323 1.54 419 1.54 473 1.55
  41  0.833  0.000  0.500- 324 1.54 464 1.54 418 1.54 472 1.55
  42  0.833  0.250  0.000- 325 1.54 459 1.54 421 1.54 467 1.54
  43  0.833  0.250  0.500- 326 1.54 458 1.54 420 1.54 466 1.55
  44  0.834  0.500  0.000- 327 1.54 469 1.54 461 1.54 423 1.54
  45  0.833  0.500  0.500- 328 1.54 422 1.54 468 1.54 460 1.55
  46  0.834  0.750  0.000- 463 1.54 329 1.54 425 1.54 471 1.55
  47  0.834  0.750  0.500- 424 1.54 330 1.54 470 1.54 462 1.54
  48  0.083  0.125  0.000- 379 1.54 331 1.54 427 1.54 387 1.55
  49  0.083  0.125  0.500- 378 1.54 426 1.54 332 1.54 386 1.55
  50  0.083  0.375  1.000- 381 1.54 333 1.54 429 1.54 389 1.54
  51  0.083  0.375  0.500- 380 1.54 334 1.54 428 1.54 388 1.54
  52  0.084  0.625  0.000- 383 1.54 335 1.54 431 1.54 391 1.55
  53  0.083  0.625  0.500- 390 1.54 382 1.54 430 1.54 336 1.54
  54  0.083  0.875  0.000- 385 1.54 337 1.54 433 1.54 393 1.55
  55  0.083  0.875  0.500- 384 1.54 432 1.54 338 1.54 392 1.55
  56  0.250  0.125  1.000- 387 1.54 339 1.54 435 1.54 395 1.54
  57  0.250  0.125  0.500- 386 1.54 434 1.54 340 1.54 394 1.54
  58  0.250  0.375  1.000- 341 1.54 389 1.54 437 1.54 397 1.54
  59  0.249  0.375  0.500- 388 1.54 342 1.55 396 1.55 436 1.55
  60  0.250  0.625  1.000- 439 1.54 391 1.54 343 1.55 399 1.55
  61  0.250  0.625  0.500- 398 1.54 344 1.54 438 1.54 390 1.54
  62  0.250  0.875  1.000- 393 1.54 345 1.54 441 1.54 401 1.55
  63  0.250  0.875  0.500- 392 1.54 346 1.54 400 1.54 440 1.54
  64  0.417  0.125  1.000- 403 1.54 347 1.54 395 1.54 443 1.55
  65  0.417  0.125  0.500- 402 1.54 394 1.54 442 1.54 348 1.54
  66  0.417  0.375  1.000- 405 1.54 445 1.54 349 1.55 397 1.55
  67  0.416  0.374  0.499- 396 1.54 404 1.54 350 1.55 444 1.55
  68  0.417  0.625  0.999- 447 1.54 399 1.54 407 1.55 351 1.55
  69  0.416  0.625  0.500- 406 1.54 352 1.54 446 1.55 398 1.55
  70  0.417  0.875  0.000- 409 1.54 401 1.54 353 1.54 449 1.54
  71  0.417  0.875  0.500- 354 1.54 408 1.54 400 1.54 448 1.55
  72  0.583  0.125  1.000- 411 1.54 355 1.54 403 1.54 451 1.55
  73  0.583  0.125  0.500- 356 1.54 410 1.54 450 1.54 402 1.54
  74  0.583  0.375  0.999- 413 1.54 405 1.55 453 1.55 357 1.55
  75  0.583  0.375  0.500- 452 1.54 358 1.54 412 1.55 404 1.55
  76  0.584  0.625  0.000- 415 1.54 455 1.54 359 1.55 407 1.55
  77  0.584  0.624  0.501- 414 1.54 575 1.55 406 1.55 454 1.56
  78  0.583  0.875  0.000- 417 1.54 409 1.54 360 1.54 457 1.55
  79  0.583  0.875  0.500- 361 1.54 416 1.54 408 1.55 456 1.55
  80  0.750  0.125  1.000- 411 1.54 362 1.54 419 1.54 459 1.55
  81  0.750  0.125  0.500- 363 1.54 410 1.54 458 1.54 418 1.55
  82  0.750  0.375  0.000- 461 1.54 421 1.54 413 1.55 364 1.55
  83  0.750  0.375  0.500- 365 1.54 460 1.54 412 1.55 420 1.55
  84  0.751  0.625  0.001- 415 1.54 366 1.54 423 1.54 463 1.55
  85  0.750  0.625  0.500- 422 1.54 462 1.54 367 1.54 414 1.55
  86  0.750  0.875  0.000- 368 1.54 417 1.54 465 1.54 425 1.54
  87  0.750  0.875  0.500- 464 1.54 369 1.54 424 1.54 416 1.55
  88  0.917  0.125  0.000- 419 1.54 370 1.54 467 1.54 379 1.54
  89  0.917  0.125  0.500- 418 1.54 371 1.54 466 1.54 378 1.55
  90  0.917  0.375  0.000- 421 1.54 372 1.54 469 1.54 381 1.54
  91  0.916  0.375  0.500- 420 1.54 373 1.54 468 1.54 380 1.55
  92  0.917  0.625  0.000- 423 1.54 374 1.54 383 1.54 471 1.54
  93  0.917  0.625  0.500- 382 1.54 470 1.54 375 1.54 422 1.54
  94  0.917  0.875  0.000- 425 1.54 376 1.54 473 1.54 385 1.55
  95  0.917  0.875  0.500- 424 1.54 472 1.54 377 1.54 384 1.54
  96  1.000  0.083  0.333- 561 1.54 378 1.54 474 1.54 522 1.55
  97  1.000  0.083  0.833- 562 1.54 475 1.54 379 1.54 523 1.55
  98  1.000  0.333  0.333- 563 1.54 380 1.54 476 1.54 524 1.55
  99  1.000  0.333  0.833- 564 1.54 381 1.54 477 1.54 525 1.54
 100  0.000  0.583  0.333- 382 1.54 565 1.54 526 1.54 478 1.54
 101  0.000  0.583  0.834- 566 1.54 527 1.54 383 1.54 479 1.54
 102  0.000  0.833  0.333- 567 1.54 384 1.54 480 1.54 528 1.55
 103  0.000  0.833  0.833- 568 1.54 385 1.54 481 1.54 529 1.55
 104  0.167  0.083  0.333- 522 1.54 386 1.54 482 1.54 530 1.55
 105  0.167  0.083  0.833- 523 1.54 483 1.54 387 1.54 531 1.55
 106  0.166  0.333  0.333- 524 1.54 388 1.54 484 1.54 532 1.55
 107  0.166  0.333  0.833- 525 1.54 389 1.54 533 1.54 485 1.54
 108  0.167  0.583  0.333- 526 1.54 390 1.54 534 1.54 486 1.54
 109  0.167  0.583  0.833- 391 1.54 527 1.54 535 1.54 487 1.54
 110  0.167  0.833  0.333- 528 1.54 392 1.54 488 1.54 536 1.54
 111  0.167  0.833  0.833- 529 1.54 393 1.54 489 1.54 537 1.55
 112  0.333  0.083  0.333- 530 1.54 394 1.54 538 1.54 490 1.54
 113  0.333  0.083  0.833- 395 1.54 539 1.54 531 1.54 491 1.54
 114  0.333  0.333  0.333- 532 1.54 396 1.54 540 1.54 492 1.55
 115  0.333  0.333  0.833- 493 1.54 541 1.54 397 1.54 533 1.54
 116  0.333  0.583  0.333- 398 1.54 542 1.54 494 1.54 534 1.54
 117  0.334  0.583  0.832- 495 1.54 535 1.55 399 1.55 543 1.56
 118  0.333  0.833  0.333- 544 1.54 536 1.54 400 1.54 496 1.55
 119  0.334  0.833  0.833- 537 1.54 401 1.54 497 1.54 545 1.55
 120  0.500  0.083  0.333- 546 1.54 538 1.54 402 1.54 498 1.55
 121  0.500  0.083  0.833- 403 1.54 547 1.54 539 1.54 499 1.55
 122  0.500  0.333  0.333- 404 1.54 500 1.54 548 1.54 540 1.54
 123  0.500  0.334  0.832- 549 1.54 541 1.55 405 1.55 501 1.56
 124  0.500  0.583  0.334- 550 1.54 542 1.55 502 1.55 406 1.56
 125  0.501  0.583  0.832- 503 1.54 576 1.55 543 1.55 407 1.56
 126  0.500  0.833  0.334- 551 1.54 408 1.54 544 1.54 504 1.55
 127  0.500  0.833  0.833- 552 1.54 409 1.54 505 1.54 545 1.55
 128  0.667  0.083  0.333- 410 1.54 553 1.54 546 1.54 506 1.55
 129  0.667  0.083  0.833- 411 1.54 554 1.54 547 1.54 507 1.55
 130  0.666  0.333  0.333- 508 1.54 412 1.54 548 1.54 555 1.55
 131  0.667  0.334  0.833- 556 1.54 413 1.54 509 1.55 549 1.55
 132  0.667  0.583  0.334- 557 1.54 510 1.54 414 1.55 550 1.55
 133  0.669  0.584  0.835- 576 1.53 415 1.53 558 1.55 511 1.55
 134  0.667  0.833  0.334- 416 1.54 559 1.54 551 1.54 512 1.55
 135  0.667  0.834  0.834- 513 1.54 417 1.54 560 1.54 552 1.55
 136  0.833  0.083  0.333- 553 1.54 418 1.54 514 1.54 561 1.55
 137  0.833  0.083  0.833- 554 1.54 419 1.54 515 1.54 562 1.55
 138  0.833  0.333  0.333- 516 1.54 555 1.54 420 1.54 563 1.55
 139  0.833  0.333  0.833- 517 1.54 564 1.54 421 1.54 556 1.55
 140  0.833  0.583  0.334- 422 1.54 565 1.54 518 1.54 557 1.55
 141  0.834  0.584  0.834- 558 1.54 566 1.54 423 1.54 519 1.55
 142  0.833  0.833  0.333- 424 1.54 520 1.54 559 1.54 567 1.54
 143  0.834  0.834  0.834- 560 1.54 521 1.54 425 1.54 568 1.55
 144  0.083  0.208  0.333- 474 1.54 426 1.54 524 1.54 482 1.55
 145  0.083  0.208  0.833- 475 1.54 427 1.54 525 1.54 483 1.54
 146  0.083  0.458  0.333- 476 1.54 428 1.54 484 1.54 526 1.54
 147  0.083  0.458  0.833- 485 1.54 477 1.54 429 1.54 527 1.54
 148  0.083  0.708  0.333- 478 1.54 430 1.54 528 1.54 486 1.54
 149  0.084  0.708  0.833- 479 1.54 431 1.54 529 1.54 487 1.55
 150  0.083  0.958  0.333- 480 1.54 432 1.54 522 1.54 488 1.54
 151  0.083  0.958  0.833- 481 1.54 523 1.54 433 1.54 489 1.55
 152  0.250  0.208  0.333- 482 1.54 434 1.54 532 1.54 490 1.54
 153  0.250  0.208  0.833- 435 1.54 533 1.54 483 1.54 491 1.54
 154  0.249  0.458  0.333- 484 1.54 436 1.54 534 1.54 492 1.54
 155  0.250  0.458  0.833- 493 1.54 437 1.54 535 1.54 485 1.54
 156  0.250  0.708  0.333- 486 1.54 438 1.54 536 1.54 494 1.54
 157  0.250  0.708  0.833- 487 1.54 439 1.54 537 1.54 495 1.55
 158  0.250  0.958  0.333- 488 1.54 440 1.54 496 1.54 530 1.54
 159  0.250  0.958  0.833- 489 1.54 441 1.54 531 1.54 497 1.55
 160  0.417  0.208  0.333- 490 1.54 442 1.54 498 1.54 540 1.54
 161  0.417  0.208  0.833- 443 1.54 499 1.54 541 1.54 491 1.55
 162  0.416  0.458  0.332- 444 1.53 492 1.54 500 1.54 542 1.54
 163  0.416  0.458  0.833- 501 1.54 543 1.54 445 1.55 493 1.55
 164  0.417  0.708  0.333- 502 1.54 446 1.54 494 1.55 544 1.55
 165  0.417  0.708  0.833- 447 1.54 545 1.54 503 1.55 495 1.55
 166  0.417  0.958  0.333- 448 1.54 504 1.54 496 1.54 538 1.55
 167  0.417  0.958  0.833- 497 1.54 449 1.54 505 1.54 539 1.54
 168  0.583  0.208  0.333- 506 1.54 498 1.54 450 1.54 548 1.54
 169  0.583  0.208  0.833- 507 1.54 451 1.54 499 1.55 549 1.55
 170  0.583  0.459  0.334- 550 1.54 500 1.55 508 1.55 452 1.56
 171  0.584  0.459  0.832- 509 1.54 576 1.55 501 1.55 453 1.56
 172  0.583  0.708  0.334- 510 1.54 502 1.55 454 1.55 551 1.55
 173  0.584  0.709  0.834- 552 1.54 455 1.54 511 1.54 503 1.55
 174  0.583  0.958  0.333- 512 1.54 456 1.54 504 1.54 546 1.55
 175  0.583  0.958  0.833- 513 1.54 457 1.54 505 1.54 547 1.55
 176  0.750  0.208  0.333- 458 1.54 506 1.54 555 1.54 514 1.55
 177  0.750  0.209  0.833- 459 1.54 515 1.54 507 1.54 556 1.55
 178  0.750  0.459  0.334- 557 1.54 508 1.54 516 1.55 460 1.55
 179  0.750  0.459  0.834- 517 1.54 461 1.54 558 1.54 509 1.55
 180  0.750  0.708  0.334- 462 1.54 518 1.54 559 1.54 510 1.55
 181  0.751  0.709  0.834- 511 1.54 463 1.54 560 1.54 519 1.55
 182  0.750  0.958  0.333- 464 1.54 520 1.54 512 1.54 553 1.54
 183  0.750  0.959  0.833- 513 1.54 465 1.54 554 1.54 521 1.54
 184  0.916  0.208  0.333- 514 1.54 466 1.54 563 1.54 474 1.55
 185  0.917  0.208  0.833- 515 1.54 467 1.54 564 1.54 475 1.55
 186  0.917  0.458  0.333- 468 1.54 516 1.54 565 1.54 476 1.55
 187  0.917  0.458  0.834- 477 1.54 469 1.54 517 1.54 566 1.55
 188  0.917  0.708  0.333- 470 1.54 518 1.54 567 1.54 478 1.54
 189  0.917  0.709  0.834- 519 1.54 471 1.54 568 1.54 479 1.54
 190  0.917  0.958  0.333- 520 1.54 472 1.54 561 1.54 480 1.55
 191  0.917  0.958  0.833- 521 1.54 473 1.54 562 1.54 481 1.55
 192  1.000  0.167  0.167- 370 1.54 474 1.54 287 1.54 331 1.55
 193  1.000  0.167  0.667- 371 1.54 288 1.54 475 1.54 332 1.55
 194  1.000  0.417  0.167- 372 1.54 476 1.54 289 1.54 333 1.55
 195  1.000  0.417  0.667- 334 1.54 373 1.54 477 1.54 290 1.55
 196  0.000  0.667  0.167- 374 1.54 478 1.54 291 1.54 335 1.55
 197  0.000  0.667  0.667- 375 1.54 336 1.54 292 1.54 479 1.54
 198  0.000  0.917  0.167- 376 1.54 480 1.54 285 1.54 337 1.55
 199  0.000  0.917  0.667- 377 1.54 286 1.54 481 1.54 338 1.55
 200  0.167  0.167  0.167- 331 1.54 482 1.54 295 1.54 339 1.55
 201  0.166  0.166  0.667- 332 1.54 296 1.54 483 1.54 340 1.55
 202  0.166  0.417  0.166- 333 1.54 484 1.54 297 1.54 341 1.54
 203  0.166  0.416  0.667- 334 1.54 342 1.54 485 1.54 298 1.55
 204  0.167  0.667  0.167- 335 1.54 486 1.54 299 1.54 343 1.55
 205  0.167  0.667  0.667- 300 1.54 336 1.54 487 1.54 344 1.54
 206  0.167  0.917  0.167- 337 1.54 488 1.54 293 1.54 345 1.54
 207  0.167  0.917  0.667- 338 1.54 489 1.54 294 1.54 346 1.55
 208  0.333  0.167  0.167- 490 1.54 339 1.54 347 1.54 303 1.54
 209  0.333  0.166  0.667- 304 1.54 340 1.54 491 1.54 348 1.54
 210  0.333  0.416  0.166- 492 1.54 341 1.54 305 1.54 349 1.54
 211  0.332  0.416  0.666- 342 1.54 493 1.54 350 1.55 306 1.55
 212  0.333  0.667  0.166- 307 1.54 343 1.54 494 1.55 351 1.55
 213  0.334  0.666  0.667- 495 1.54 344 1.55 308 1.55 352 1.56
 214  0.333  0.917  0.167- 345 1.54 496 1.54 353 1.54 301 1.54
 215  0.333  0.916  0.667- 497 1.54 346 1.54 302 1.55 354 1.55
 216  0.500  0.167  0.166- 355 1.54 347 1.54 498 1.54 311 1.55
 217  0.500  0.167  0.667- 356 1.54 499 1.54 312 1.55 348 1.55
 218  0.500  0.417  0.166- 357 1.54 313 1.54 349 1.55 500 1.55
 219  0.500  0.666  0.167- 359 1.54 351 1.54 314 1.55 502 1.55
 220  0.501  0.666  0.667- 503 1.54 575 1.55 352 1.55 315 1.56
 221  0.500  0.917  0.167- 360 1.54 504 1.54 353 1.54 309 1.55
 222  0.500  0.917  0.667- 361 1.54 505 1.54 354 1.54 310 1.55
 223  0.667  0.167  0.167- 355 1.54 506 1.54 362 1.54 318 1.55
 224  0.666  0.167  0.667- 507 1.54 356 1.54 363 1.55 319 1.55
 225  0.666  0.417  0.167- 320 1.54 357 1.54 364 1.55 508 1.55
 226  0.666  0.418  0.667- 509 1.54 574 1.55 358 1.55 365 1.56
 227  0.667  0.667  0.167- 366 1.54 321 1.54 510 1.55 359 1.55
 228  0.669  0.668  0.667- 322 1.53 575 1.54 367 1.55 511 1.55
 229  0.667  0.917  0.167- 512 1.54 360 1.54 368 1.54 316 1.55
 230  0.667  0.917  0.667- 513 1.54 369 1.54 317 1.54 361 1.55
 231  0.833  0.167  0.167- 362 1.54 514 1.54 325 1.54 370 1.54
 232  0.833  0.167  0.667- 515 1.54 363 1.54 326 1.55 371 1.55
 233  0.833  0.417  0.167- 364 1.54 327 1.54 516 1.55 372 1.55
 234  0.833  0.417  0.667- 517 1.54 328 1.54 373 1.54 365 1.55
 235  0.834  0.667  0.167- 366 1.54 518 1.54 329 1.54 374 1.54
 236  0.834  0.667  0.667- 367 1.54 375 1.54 330 1.54 519 1.55
 237  0.833  0.917  0.167- 520 1.54 368 1.54 323 1.54 376 1.55
 238  0.834  0.917  0.667- 369 1.54 324 1.54 521 1.54 377 1.55
 239  0.083  0.042  0.167- 285 1.54 522 1.54 331 1.54 293 1.54
 240  0.083  0.042  0.667- 286 1.54 332 1.54 523 1.54 294 1.55
 241  0.083  0.292  0.167- 287 1.54 524 1.54 333 1.54 295 1.55
 242  0.083  0.292  0.667- 288 1.54 334 1.54 525 1.54 296 1.54
 243  0.083  0.542  0.167- 526 1.54 289 1.54 335 1.54 297 1.54
 244  0.083  0.542  0.667- 298 1.54 290 1.54 527 1.54 336 1.55
 245  0.083  0.792  0.167- 291 1.54 528 1.54 337 1.54 299 1.55
 246  0.084  0.792  0.667- 292 1.54 338 1.54 529 1.54 300 1.55
 247  0.250  0.042  0.167- 293 1.54 530 1.54 301 1.54 339 1.54
 248  0.250  0.041  0.667- 294 1.54 340 1.54 531 1.54 302 1.55
 249  0.250  0.292  0.166- 295 1.54 532 1.54 303 1.54 341 1.54
 250  0.249  0.291  0.667- 296 1.54 342 1.54 533 1.54 304 1.54
 251  0.250  0.542  0.166- 534 1.54 297 1.54 343 1.54 305 1.54
 252  0.249  0.541  0.666- 306 1.53 298 1.54 535 1.54 344 1.54
 253  0.250  0.792  0.167- 299 1.54 536 1.54 345 1.54 307 1.55
 254  0.250  0.791  0.667- 537 1.54 300 1.54 346 1.55 308 1.55
 255  0.417  0.042  0.167- 309 1.54 538 1.54 301 1.54 347 1.55
 256  0.417  0.042  0.667- 539 1.54 310 1.54 302 1.54 348 1.54
 257  0.417  0.292  0.166- 311 1.54 540 1.54 303 1.54 349 1.54
 258  0.416  0.291  0.666- 350 1.53 304 1.54 541 1.54 312 1.54
 259  0.417  0.542  0.166- 351 1.54 313 1.54 305 1.55 542 1.55
 260  0.417  0.792  0.167- 314 1.54 307 1.54 544 1.54 353 1.55
 261  0.417  0.791  0.667- 545 1.54 308 1.54 315 1.55 354 1.55
 262  0.583  0.042  0.167- 316 1.54 546 1.54 309 1.54 355 1.55
 263  0.583  0.042  0.667- 317 1.54 547 1.54 310 1.54 356 1.55
 264  0.583  0.292  0.166- 318 1.54 311 1.54 548 1.55 357 1.55
 265  0.583  0.292  0.667- 549 1.54 312 1.55 319 1.55 358 1.56
 266  0.583  0.542  0.167- 320 1.54 359 1.54 313 1.55 550 1.55
 267  0.583  0.792  0.167- 321 1.54 314 1.54 551 1.55 360 1.55
 268  0.584  0.792  0.667- 322 1.54 552 1.54 361 1.55 315 1.55
 269  0.750  0.042  0.167- 553 1.54 316 1.54 323 1.54 362 1.54
 270  0.750  0.042  0.667- 554 1.54 317 1.54 324 1.55 363 1.55
 271  0.750  0.292  0.167- 318 1.54 364 1.54 555 1.54 325 1.55
 272  0.750  0.292  0.667- 556 1.54 319 1.54 326 1.55 365 1.55
 273  0.750  0.542  0.167- 327 1.54 366 1.54 557 1.55 320 1.55
 274  0.753  0.542  0.667- 328 1.53 574 1.53 558 1.55 367 1.55
 275  0.750  0.792  0.167- 559 1.54 321 1.54 329 1.54 368 1.54
 276  0.751  0.792  0.667- 322 1.54 369 1.54 560 1.54 330 1.54
 277  0.917  0.042  0.167- 323 1.54 561 1.54 370 1.54 285 1.54
 278  0.917  0.042  0.667- 324 1.54 562 1.54 371 1.54 286 1.55
 279  0.917  0.292  0.167- 325 1.54 563 1.54 372 1.54 287 1.55
 280  0.916  0.292  0.667- 326 1.54 373 1.54 564 1.54 288 1.55
 281  0.917  0.542  0.167- 565 1.54 327 1.54 289 1.54 374 1.54
 282  0.917  0.542  0.667- 328 1.54 290 1.54 566 1.54 375 1.55
 283  0.917  0.792  0.167- 329 1.54 567 1.54 376 1.54 291 1.55
 284  0.917  0.792  0.667- 330 1.54 377 1.54 568 1.54 292 1.54
 285  0.000  0.000  0.125- 239 1.54   1 1.54 198 1.54 277 1.54
 286  0.000  0.000  0.625- 240 1.54 199 1.54   2 1.54 278 1.55
 287  1.000  0.250  0.125- 241 1.54   3 1.54 192 1.54 279 1.55
 288  1.000  0.250  0.625- 242 1.54 193 1.54   4 1.54 280 1.55
 289  1.000  0.500  0.125-   5 1.54 243 1.54 194 1.54 281 1.54
 290  0.000  0.500  0.625- 282 1.54 244 1.54   6 1.54 195 1.55
 291  0.000  0.750  0.125- 245 1.54   7 1.54 196 1.54 283 1.55
 292  0.000  0.750  0.625- 246 1.54 197 1.54   8 1.54 284 1.54
 293  0.167  1.000  0.125- 247 1.54   9 1.54 206 1.54 239 1.54
 294  0.167  1.000  0.625- 248 1.54  10 1.54 207 1.54 240 1.55
 295  0.167  0.250  0.125- 249 1.54  11 1.54 200 1.54 241 1.55
 296  0.166  0.250  0.625- 250 1.54 201 1.54  12 1.54 242 1.54
 297  0.167  0.500  0.125-  13 1.54 251 1.54 243 1.54 202 1.54
 298  0.166  0.500  0.625- 252 1.54 244 1.54  14 1.54 203 1.55
 299  0.167  0.750  0.125- 253 1.54  15 1.54 204 1.54 245 1.55
 300  0.167  0.750  0.625- 254 1.54 205 1.54  16 1.54 246 1.55
 301  0.333  1.000  0.125-  17 1.54 255 1.54 247 1.54 214 1.54
 302  0.333  1.000  0.625-  18 1.54 256 1.54 248 1.55 215 1.55
 303  0.333  0.250  0.125-  19 1.54 257 1.54 249 1.54 208 1.54
 304  0.333  0.249  0.625- 258 1.54 209 1.54  20 1.54 250 1.54
 305  0.333  0.500  0.125- 251 1.54 210 1.54  21 1.55 259 1.55
 306  0.331  0.499  0.624- 252 1.53 573 1.53  22 1.55 211 1.55
 307  0.333  0.750  0.125- 260 1.54 212 1.54  23 1.54 253 1.55
 308  0.334  0.750  0.625-  24 1.54 261 1.54 254 1.55 213 1.55
 309  0.500  1.000  0.125- 255 1.54  25 1.54 262 1.54 221 1.55
 310  0.500  1.000  0.625- 256 1.54  26 1.54 263 1.54 222 1.55
 311  0.500  0.250  0.125- 257 1.54 264 1.54  27 1.55 216 1.55
 312  0.500  0.250  0.625- 258 1.54  28 1.54 217 1.55 265 1.55
 313  0.500  0.500  0.125- 259 1.54 218 1.54 266 1.55  29 1.55
 314  0.500  0.750  0.125- 260 1.54 267 1.54  30 1.55 219 1.55
 315  0.501  0.750  0.625-  31 1.54 268 1.55 261 1.55 220 1.56
 316  0.667  0.000  0.125- 262 1.54  32 1.54 269 1.54 229 1.55
 317  0.667  0.000  0.625-  33 1.54 263 1.54 270 1.54 230 1.54
 318  0.667  0.250  0.125- 264 1.54 271 1.54  34 1.54 223 1.55
 319  0.666  0.250  0.625-  35 1.54 272 1.54 265 1.55 224 1.55
 320  0.667  0.500  0.125- 225 1.54 266 1.54 273 1.55  36 1.55
 321  0.667  0.750  0.125- 267 1.54  38 1.54 275 1.54 227 1.54
 322  0.667  0.751  0.625- 228 1.53 276 1.54  39 1.54 268 1.54
 323  0.833  0.000  0.125- 277 1.54  40 1.54 269 1.54 237 1.54
 324  0.833  0.000  0.625- 278 1.54 238 1.54  41 1.54 270 1.55
 325  0.833  0.250  0.125- 279 1.54  42 1.54 231 1.54 271 1.55
 326  0.833  0.250  0.625-  43 1.54 280 1.54 232 1.55 272 1.55
 327  0.833  0.500  0.125-  44 1.54 281 1.54 233 1.54 273 1.54
 328  0.834  0.500  0.625- 274 1.53 282 1.54  45 1.54 234 1.54
 329  0.834  0.750  0.125- 283 1.54  46 1.54 275 1.54 235 1.54
 330  0.834  0.750  0.625- 284 1.54 236 1.54  47 1.54 276 1.54
 331  0.083  0.125  0.125- 200 1.54  48 1.54 239 1.54 192 1.55
 332  0.083  0.125  0.625- 201 1.54 240 1.54  49 1.54 193 1.55
 333  0.083  0.375  0.125- 202 1.54  50 1.54 241 1.54 194 1.55
 334  0.083  0.375  0.625- 203 1.54 195 1.54 242 1.54  51 1.54
 335  0.083  0.625  0.125- 204 1.54  52 1.54 243 1.54 196 1.55
 336  0.083  0.625  0.625- 197 1.54 205 1.54  53 1.54 244 1.55
 337  0.083  0.875  0.125- 206 1.54  54 1.54 245 1.54 198 1.55
 338  0.083  0.875  0.625- 207 1.54 246 1.54  55 1.54 199 1.55
 339  0.250  0.125  0.125-  56 1.54 208 1.54 247 1.54 200 1.55
 340  0.250  0.125  0.625- 209 1.54 248 1.54  57 1.54 201 1.55
 341  0.250  0.375  0.125- 210 1.54  58 1.54 249 1.54 202 1.54
 342  0.249  0.374  0.625- 211 1.54 203 1.54 250 1.54  59 1.55
 343  0.250  0.625  0.125- 212 1.54 251 1.54  60 1.55 204 1.55
 344  0.250  0.625  0.625-  61 1.54 252 1.54 205 1.54 213 1.55
 345  0.250  0.875  0.125- 214 1.54  62 1.54 253 1.54 206 1.54
 346  0.250  0.875  0.625-  63 1.54 215 1.54 254 1.55 207 1.55
 347  0.417  0.125  0.125-  64 1.54 216 1.54 208 1.54 255 1.55
 348  0.417  0.125  0.625-  65 1.54 209 1.54 256 1.54 217 1.55
 349  0.417  0.375  0.125- 210 1.54 257 1.54  66 1.55 218 1.55
 350  0.415  0.373  0.624- 258 1.53 572 1.54 211 1.55  67 1.55
 351  0.417  0.625  0.125- 259 1.54 219 1.54 212 1.55  68 1.55
 352  0.417  0.624  0.624-  69 1.54 573 1.55 220 1.55 213 1.56
 353  0.417  0.875  0.125- 221 1.54  70 1.54 214 1.54 260 1.55
 354  0.417  0.875  0.625-  71 1.54 222 1.54 215 1.55 261 1.55
 355  0.583  0.125  0.125- 216 1.54  72 1.54 223 1.54 262 1.55
 356  0.583  0.125  0.625- 217 1.54  73 1.54 224 1.54 263 1.55
 357  0.583  0.375  0.125- 218 1.54 225 1.54 264 1.55  74 1.55
 358  0.583  0.376  0.624-  75 1.54 572 1.55 226 1.55 265 1.56
 359  0.583  0.625  0.125- 219 1.54 266 1.54 227 1.55  76 1.55
 360  0.583  0.875  0.125- 221 1.54 229 1.54  78 1.54 267 1.55
 361  0.583  0.875  0.625- 222 1.54  79 1.54 268 1.55 230 1.55
 362  0.750  0.125  0.125- 231 1.54  80 1.54 223 1.54 269 1.54
 363  0.750  0.125  0.625-  81 1.54 232 1.54 270 1.55 224 1.55
 364  0.750  0.375  0.125- 271 1.54 233 1.54  82 1.55 225 1.55
 365  0.750  0.376  0.625-  83 1.54 234 1.55 272 1.55 226 1.56
 366  0.750  0.625  0.126-  84 1.54 235 1.54 273 1.54 227 1.54
 367  0.751  0.626  0.625- 236 1.54  85 1.54 228 1.55 274 1.55
 368  0.750  0.875  0.125-  86 1.54 237 1.54 229 1.54 275 1.54
 369  0.750  0.875  0.625- 276 1.54 238 1.54  87 1.54 230 1.54
 370  0.917  0.125  0.125- 192 1.54  88 1.54 277 1.54 231 1.54
 371  0.917  0.125  0.625- 193 1.54  89 1.54 278 1.54 232 1.55
 372  0.917  0.375  0.125- 194 1.54  90 1.54 279 1.54 233 1.55
 373  0.917  0.375  0.625- 280 1.54 195 1.54  91 1.54 234 1.54
 374  0.917  0.625  0.125- 196 1.54  92 1.54 281 1.54 235 1.54
 375  0.917  0.625  0.625- 197 1.54 236 1.54  93 1.54 282 1.55
 376  0.917  0.875  0.125- 198 1.54  94 1.54 283 1.54 237 1.55
 377  0.917  0.875  0.625- 199 1.54 284 1.54  95 1.54 238 1.55
 378  1.000  0.083  0.458-  49 1.54   2 1.54  96 1.54  89 1.55
 379  1.000  0.083  0.958-  48 1.54   1 1.54  97 1.54  88 1.54
 380  1.000  0.333  0.458-  51 1.54  98 1.54   4 1.54  91 1.55
 381  1.000  0.333  0.958-  50 1.54  99 1.54   3 1.54  90 1.54
 382  0.000  0.583  0.458-  93 1.54  53 1.54 100 1.54   6 1.54
 383  0.000  0.583  0.958-  52 1.54 101 1.54  92 1.54   5 1.54
 384  0.000  0.833  0.458-  55 1.54 102 1.54   8 1.54  95 1.54
 385  0.000  0.833  0.958-  54 1.54 103 1.54   7 1.54  94 1.55
 386  0.167  0.083  0.458-  57 1.54 104 1.54  10 1.54  49 1.55
 387  0.167  0.083  0.958-  56 1.54 105 1.54   9 1.54  48 1.55
 388  0.166  0.333  0.458-  59 1.54 106 1.54  12 1.54  51 1.54
 389  0.167  0.333  0.958- 107 1.54  58 1.54  11 1.54  50 1.54
 390  0.166  0.583  0.458-  53 1.54 108 1.54  61 1.54  14 1.54
 391  0.167  0.583  0.958- 109 1.54  60 1.54  13 1.54  52 1.55
 392  0.167  0.833  0.458-  63 1.54 110 1.54  16 1.54  55 1.55
 393  0.167  0.833  0.958-  62 1.54 111 1.54  15 1.54  54 1.55
 394  0.333  0.083  0.458-  65 1.54 112 1.54  18 1.54  57 1.54
 395  0.333  0.083  0.958- 113 1.54  56 1.54  64 1.54  17 1.54
 396  0.333  0.333  0.458-  67 1.54 114 1.54  20 1.54  59 1.55
 397  0.333  0.333  0.958- 115 1.54  58 1.54  19 1.54  66 1.55
 398  0.333  0.583  0.458-  61 1.54 116 1.54  22 1.54  69 1.55
 399  0.334  0.583  0.958-  21 1.54  68 1.54  60 1.55 117 1.55
 400  0.333  0.833  0.458- 118 1.54  63 1.54  71 1.54  24 1.55
 401  0.333  0.833  0.958- 119 1.54  70 1.54  23 1.54  62 1.55
 402  0.500  0.083  0.458-  65 1.54 120 1.54  73 1.54  26 1.55
 403  0.500  0.083  0.958-  64 1.54 121 1.54  72 1.54  25 1.55
 404  0.500  0.333  0.458-  28 1.54 122 1.54  67 1.54  75 1.55
 405  0.500  0.334  0.958-  66 1.54  74 1.55  27 1.55 123 1.55
 406  0.500  0.583  0.460-  69 1.54 571 1.55  77 1.55 124 1.56
 407  0.501  0.583  0.958-  29 1.54  76 1.55  68 1.55 125 1.56
 408  0.500  0.833  0.458-  71 1.54 126 1.54  79 1.55  31 1.55
 409  0.500  0.833  0.958-  70 1.54  78 1.54 127 1.54  30 1.54
 410  0.667  0.083  0.458-  81 1.54 128 1.54  73 1.54  33 1.54
 411  0.667  0.083  0.958- 129 1.54  72 1.54  80 1.54  32 1.55
 412  0.666  0.333  0.458-  35 1.54 130 1.54  75 1.55  83 1.55
 413  0.667  0.334  0.958-  74 1.54 131 1.54  82 1.55  34 1.55
 414  0.667  0.583  0.459-  77 1.54  37 1.54 132 1.55  85 1.55
 415  0.667  0.584  0.959- 133 1.53  84 1.54  76 1.54  36 1.54
 416  0.667  0.833  0.458- 134 1.54  79 1.54  39 1.54  87 1.55
 417  0.667  0.833  0.959-  86 1.54 135 1.54  78 1.54  38 1.54
 418  0.833  0.083  0.458-  89 1.54 136 1.54  41 1.54  81 1.55
 419  0.833  0.083  0.958-  88 1.54 137 1.54  80 1.54  40 1.54
 420  0.833  0.333  0.458-  91 1.54 138 1.54  43 1.54  83 1.55
 421  0.833  0.333  0.958-  90 1.54 139 1.54  42 1.54  82 1.54
 422  0.834  0.584  0.458-  85 1.54 140 1.54  45 1.54  93 1.54
 423  0.834  0.584  0.959-  92 1.54 141 1.54  44 1.54  84 1.54
 424  0.833  0.834  0.458- 142 1.54  47 1.54  95 1.54  87 1.54
 425  0.834  0.834  0.959-  94 1.54 143 1.54  46 1.54  86 1.54
 426  0.083  0.208  0.458-  12 1.54  49 1.54 144 1.54   4 1.55
 427  0.083  0.208  0.958-  11 1.54 145 1.54  48 1.54   3 1.55
 428  0.083  0.458  0.458-  14 1.54   6 1.54 146 1.54  51 1.54
 429  0.083  0.458  0.958- 147 1.54  13 1.54   5 1.54  50 1.54
 430  0.083  0.708  0.458-  16 1.54 148 1.54  53 1.54   8 1.54
 431  0.084  0.708  0.958-  15 1.54 149 1.54  52 1.54   7 1.55
 432  0.083  0.958  0.458-  10 1.54  55 1.54 150 1.54   2 1.55
 433  0.083  0.958  0.958-   9 1.54 151 1.54  54 1.54   1 1.55
 434  0.250  0.208  0.458-  20 1.54  57 1.54 152 1.54  12 1.55
 435  0.250  0.208  0.958- 153 1.54  56 1.54  19 1.54  11 1.54
 436  0.249  0.458  0.458-  22 1.54  14 1.54 154 1.54  59 1.55
 437  0.250  0.458  0.958- 155 1.54  58 1.54  13 1.54  21 1.55
 438  0.250  0.708  0.458-  61 1.54  16 1.54 156 1.54  24 1.55
 439  0.250  0.708  0.958-  60 1.54  23 1.54 157 1.54  15 1.55
 440  0.250  0.958  0.458-  18 1.54 158 1.54  63 1.54  10 1.55
 441  0.250  0.958  0.958-  17 1.54 159 1.54  62 1.54   9 1.55
 442  0.416  0.208  0.458-  65 1.54 160 1.54  20 1.54  28 1.55
 443  0.417  0.208  0.958- 161 1.54  19 1.54  27 1.54  64 1.55
 444  0.415  0.457  0.456- 571 1.53 162 1.53  22 1.55  67 1.55
 445  0.417  0.458  0.958-  21 1.54  66 1.54 163 1.55  29 1.55
 446  0.417  0.708  0.458-  24 1.54 164 1.54  69 1.55  31 1.55
 447  0.417  0.708  0.958-  68 1.54 165 1.54  30 1.54  23 1.55
 448  0.417  0.958  0.458- 166 1.54  18 1.54  26 1.54  71 1.55
 449  0.417  0.958  0.958- 167 1.54  17 1.54  25 1.54  70 1.54
 450  0.583  0.208  0.458-  28 1.54 168 1.54  73 1.54  35 1.55
 451  0.583  0.208  0.958-  27 1.54 169 1.54  34 1.54  72 1.55
 452  0.583  0.458  0.460-  75 1.54 571 1.55  37 1.55 170 1.56
 453  0.583  0.459  0.958-  29 1.54  36 1.55  74 1.55 171 1.56
 454  0.583  0.708  0.459-  31 1.54  39 1.55 172 1.55  77 1.56
 455  0.584  0.708  0.959- 173 1.54  76 1.54  30 1.54  38 1.54
 456  0.583  0.958  0.458- 174 1.54  26 1.54  33 1.54  79 1.55
 457  0.583  0.958  0.958-  25 1.54  32 1.54 175 1.54  78 1.55
 458  0.750  0.208  0.458-  43 1.54 176 1.54  81 1.54  35 1.55
 459  0.750  0.208  0.958-  34 1.54  42 1.54 177 1.54  80 1.55
 460  0.750  0.459  0.459-  83 1.54  45 1.55 178 1.55  37 1.56
 461  0.750  0.458  0.959- 179 1.54  36 1.54  82 1.54  44 1.54
 462  0.750  0.709  0.459-  85 1.54  39 1.54 180 1.54  47 1.54
 463  0.750  0.709  0.959-  46 1.54 181 1.54  38 1.54  84 1.55
 464  0.750  0.958  0.458- 182 1.54  33 1.54  41 1.54  87 1.54
 465  0.750  0.958  0.958-  40 1.54 183 1.54  32 1.54  86 1.54
 466  0.916  0.208  0.458-   4 1.54 184 1.54  89 1.54  43 1.55
 467  0.917  0.208  0.958-   3 1.54 185 1.54  88 1.54  42 1.54
 468  0.917  0.458  0.458- 186 1.54   6 1.54  45 1.54  91 1.54
 469  0.917  0.458  0.959-   5 1.54 187 1.54  44 1.54  90 1.54
 470  0.917  0.708  0.458-   8 1.54 188 1.54  93 1.54  47 1.54
 471  0.917  0.709  0.959-   7 1.54 189 1.54  92 1.54  46 1.55
 472  0.917  0.958  0.458-   2 1.54  95 1.54 190 1.54  41 1.55
 473  0.917  0.958  0.958-   1 1.54 191 1.54  94 1.54  40 1.55
 474  1.000  0.167  0.292- 144 1.54 192 1.54  96 1.54 184 1.55
 475  1.000  0.167  0.792- 145 1.54  97 1.54 193 1.54 185 1.55
 476  1.000  0.417  0.292- 146 1.54 194 1.54  98 1.54 186 1.55
 477  1.000  0.417  0.792- 187 1.54 147 1.54 195 1.54  99 1.54
 478  0.000  0.667  0.292- 148 1.54 196 1.54 100 1.54 188 1.54
 479  0.000  0.667  0.792- 149 1.54 197 1.54 189 1.54 101 1.54
 480  0.000  0.917  0.292- 150 1.54 198 1.54 102 1.54 190 1.55
 481  0.000  0.917  0.792- 151 1.54 103 1.54 199 1.54 191 1.55
 482  0.166  0.167  0.292- 152 1.54 200 1.54 104 1.54 144 1.55
 483  0.167  0.167  0.792- 153 1.54 105 1.54 201 1.54 145 1.54
 484  0.166  0.416  0.291- 154 1.54 202 1.54 146 1.54 106 1.54
 485  0.166  0.416  0.792- 147 1.54 107 1.54 203 1.54 155 1.54
 486  0.167  0.667  0.291- 156 1.54 204 1.54 108 1.54 148 1.54
 487  0.167  0.667  0.792- 157 1.54 205 1.54 109 1.54 149 1.55
 488  0.167  0.917  0.292- 158 1.54 206 1.54 110 1.54 150 1.54
 489  0.167  0.917  0.792- 159 1.54 207 1.54 111 1.54 151 1.55
 490  0.333  0.167  0.292- 208 1.54 160 1.54 112 1.54 152 1.54
 491  0.333  0.167  0.792- 209 1.54 113 1.54 153 1.54 161 1.55
 492  0.333  0.416  0.291- 162 1.54 210 1.54 154 1.54 114 1.55
 493  0.333  0.416  0.791- 155 1.54 115 1.54 211 1.54 163 1.55
 494  0.333  0.667  0.291- 116 1.54 156 1.54 164 1.55 212 1.55
 495  0.334  0.666  0.791- 213 1.54 117 1.54 165 1.55 157 1.55
 496  0.333  0.917  0.292- 166 1.54 214 1.54 158 1.54 118 1.55
 497  0.333  0.917  0.792- 215 1.54 167 1.54 119 1.54 159 1.55
 498  0.500  0.167  0.291- 160 1.54 168 1.54 216 1.54 120 1.55
 499  0.500  0.167  0.792- 217 1.54 161 1.54 169 1.55 121 1.55
 500  0.500  0.417  0.292- 162 1.54 122 1.54 218 1.55 170 1.55
 501  0.500  0.418  0.790- 163 1.54 572 1.55 171 1.55 123 1.56
 502  0.500  0.666  0.292- 164 1.54 172 1.55 124 1.55 219 1.55
 503  0.500  0.667  0.792- 125 1.54 220 1.54 165 1.55 173 1.55
 504  0.500  0.917  0.292- 166 1.54 221 1.54 174 1.54 126 1.55
 505  0.500  0.917  0.792- 222 1.54 167 1.54 175 1.54 127 1.54
 506  0.667  0.167  0.292- 168 1.54 176 1.54 223 1.54 128 1.55
 507  0.667  0.167  0.792- 224 1.54 169 1.54 177 1.54 129 1.55
 508  0.666  0.417  0.292- 130 1.54 178 1.54 170 1.55 225 1.55
 509  0.667  0.417  0.792- 171 1.54 226 1.54 131 1.55 179 1.55
 510  0.667  0.667  0.292- 172 1.54 132 1.54 227 1.55 180 1.55
 511  0.668  0.668  0.793- 181 1.54 173 1.54 228 1.55 133 1.55
 512  0.667  0.917  0.292- 174 1.54 229 1.54 182 1.54 134 1.55
 513  0.667  0.917  0.792- 175 1.54 183 1.54 230 1.54 135 1.54
 514  0.833  0.167  0.292- 184 1.54 231 1.54 136 1.54 176 1.55
 515  0.833  0.167  0.792- 185 1.54 232 1.54 177 1.54 137 1.54
 516  0.833  0.417  0.292- 138 1.54 186 1.54 233 1.55 178 1.55
 517  0.833  0.417  0.792- 179 1.54 234 1.54 139 1.54 187 1.54
 518  0.833  0.667  0.292- 235 1.54 188 1.54 180 1.54 140 1.54
 519  0.834  0.667  0.792- 189 1.54 236 1.55 181 1.55 141 1.55
 520  0.833  0.917  0.292- 190 1.54 237 1.54 142 1.54 182 1.54
 521  0.834  0.917  0.792- 191 1.54 143 1.54 238 1.54 183 1.54
 522  0.083  0.042  0.292- 104 1.54 239 1.54 150 1.54  96 1.55
 523  0.083  0.042  0.792- 105 1.54 151 1.54 240 1.54  97 1.55
 524  0.083  0.292  0.292- 106 1.54 241 1.54 144 1.54  98 1.55
 525  0.083  0.292  0.792- 107 1.54 242 1.54 145 1.54  99 1.54
 526  0.083  0.542  0.292- 243 1.54 108 1.54 100 1.54 146 1.54
 527  0.083  0.542  0.792- 101 1.54 109 1.54 244 1.54 147 1.54
 528  0.083  0.792  0.292- 110 1.54 245 1.54 148 1.54 102 1.55
 529  0.084  0.792  0.792- 111 1.54 246 1.54 149 1.54 103 1.55
 530  0.250  0.042  0.292- 112 1.54 247 1.54 158 1.54 104 1.55
 531  0.250  0.042  0.792- 248 1.54 113 1.54 159 1.54 105 1.55
 532  0.250  0.291  0.291- 114 1.54 249 1.54 152 1.54 106 1.55
 533  0.250  0.291  0.792- 153 1.54 250 1.54 107 1.54 115 1.54
 534  0.250  0.542  0.291- 251 1.54 108 1.54 116 1.54 154 1.54
 535  0.250  0.541  0.791- 252 1.54 155 1.54 109 1.54 117 1.55
 536  0.250  0.792  0.292- 253 1.54 118 1.54 156 1.54 110 1.54
 537  0.250  0.792  0.792- 254 1.54 119 1.54 157 1.54 111 1.55
 538  0.417  0.042  0.292- 255 1.54 120 1.54 112 1.54 166 1.55
 539  0.417  0.042  0.792- 256 1.54 113 1.54 121 1.54 167 1.54
 540  0.416  0.292  0.291- 257 1.54 114 1.54 160 1.54 122 1.54
 541  0.416  0.292  0.791- 115 1.54 258 1.54 161 1.54 123 1.55
 542  0.416  0.541  0.292- 116 1.54 162 1.54 259 1.55 124 1.55
 543  0.417  0.541  0.790- 163 1.54 573 1.55 125 1.55 117 1.56
 544  0.417  0.792  0.292- 118 1.54 260 1.54 126 1.54 164 1.55
 545  0.417  0.792  0.792- 261 1.54 165 1.54 119 1.55 127 1.55
 546  0.583  0.042  0.292- 262 1.54 120 1.54 128 1.54 174 1.55
 547  0.583  0.042  0.792- 263 1.54 121 1.54 129 1.54 175 1.55
 548  0.583  0.292  0.292- 122 1.54 168 1.54 130 1.54 264 1.55
 549  0.583  0.292  0.791- 123 1.54 265 1.54 131 1.55 169 1.55
 550  0.583  0.542  0.292- 124 1.54 170 1.54 132 1.55 266 1.55
 551  0.583  0.792  0.292- 126 1.54 134 1.54 267 1.55 172 1.55
 552  0.584  0.792  0.792- 173 1.54 268 1.54 127 1.54 135 1.55
 553  0.750  0.042  0.292- 269 1.54 136 1.54 128 1.54 182 1.54
 554  0.750  0.042  0.792- 137 1.54 270 1.54 129 1.54 183 1.54
 555  0.750  0.292  0.292- 138 1.54 271 1.54 176 1.54 130 1.55
 556  0.750  0.292  0.792- 272 1.54 131 1.54 139 1.55 177 1.55
 557  0.750  0.542  0.292- 178 1.54 132 1.54 273 1.55 140 1.55
 558  0.751  0.542  0.793- 141 1.54 179 1.54 133 1.55 274 1.55
 559  0.750  0.792  0.292- 275 1.54 134 1.54 180 1.54 142 1.54
 560  0.750  0.792  0.792- 143 1.54 181 1.54 135 1.54 276 1.54
 561  0.917  0.042  0.292-  96 1.54 277 1.54 190 1.54 136 1.55
 562  0.917  0.042  0.792-  97 1.54 278 1.54 191 1.54 137 1.55
 563  0.916  0.292  0.292-  98 1.54 279 1.54 184 1.54 138 1.55
 564  0.917  0.292  0.792-  99 1.54 280 1.54 185 1.54 139 1.54
 565  0.917  0.542  0.292- 281 1.54 100 1.54 140 1.54 186 1.54
 566  0.917  0.542  0.792- 101 1.54 141 1.54 282 1.54 187 1.55
 567  0.917  0.792  0.292- 102 1.54 283 1.54 188 1.54 142 1.54
 568  0.917  0.792  0.792- 103 1.54 189 1.54 284 1.54 143 1.55
 569  0.596  0.548  0.673- 576 1.48 574 1.48 575 1.48
 570  0.487  0.493  0.618- 571 1.48 573 1.48 572 1.48
 571  0.497  0.498  0.499- 570 1.48 444 1.53 452 1.55 406 1.55
 572  0.497  0.416  0.665- 570 1.48 350 1.54 358 1.55 501 1.55
 573  0.414  0.540  0.665- 570 1.48 306 1.53 352 1.55 543 1.55
 574  0.669  0.502  0.627- 569 1.48 274 1.53 226 1.55  37 1.55
 575  0.586  0.626  0.627- 569 1.48 228 1.54 220 1.55  77 1.55
 576  0.586  0.543  0.792- 569 1.48 133 1.53 125 1.55 171 1.55
 
  LATTYP: Found a simple orthorhombic cell.
 ALAT       =    12.3557996750
 B/A-ratio  =     1.2247365795
 C/A-ratio  =     1.4142023056
  
  Lattice vectors:
  
 A1 = (   0.0000000000,   0.0000000000,  12.3557996750)
 A2 = (  15.1325998306,   0.0000000000,   0.0000000000)
 A3 = (   0.0000000000,  17.4736003876,   0.0000000000)


Analysis of symmetry for initial positions (statically):
=====================================================================
 Subroutine PRICEL returns:
 Original cell was already a primitive cell.
 

 Routine SETGRP: Setting up the symmetry group for a 
 simple orthorhombic supercell.


 Subroutine GETGRP returns: Found  2 space group operations
 (whereof  1 operations were pure point group operations)
 out of a pool of  8 trial point group operations.


The static configuration has the point symmetry C_1 .
 The point group associated with its full space group is S_2 .


Analysis of symmetry for dynamics (positions and initial velocities):
=====================================================================
 Subroutine PRICEL returns:
 Original cell was already a primitive cell.
 

 Routine SETGRP: Setting up the symmetry group for a 
 simple orthorhombic supercell.


 Subroutine GETGRP returns: Found  2 space group operations
 (whereof  1 operations were pure point group operations)
 out of a pool of  8 trial point group operations.


The dynamic configuration has the point symmetry C_1 .
 The point group associated with its full space group is S_2 .


Analysis of structural, dynamic, and magnetic symmetry:
=====================================================================
 Subroutine PRICEL returns:
 Original cell was already a primitive cell.
 

 Routine SETGRP: Setting up the symmetry group for a 
 simple orthorhombic supercell.


 Subroutine GETGRP returns: Found  2 space group operations
 (whereof  1 operations were pure point group operations)
 out of a pool of  8 trial point group operations.


The overall configuration has the point symmetry C_1 .
 The point group associated with its full space group is S_2 .


 Subroutine INISYM returns: Found  2 space group operations
 (whereof  1 operations are pure point group operations),
 and found     1 'primitive' translations


----------------------------------------------------------------------------------------

                                     Primitive cell                                     

  volume of cell :    3267.1329

  direct lattice vectors                    reciprocal lattice vectors
    15.132599831  0.000000000  0.000000000     0.066082498  0.000000000  0.000000000
     0.000000000 17.473600388  0.000000000     0.000000000  0.057229190  0.000000000
     0.000000000  0.000000000 12.355799675     0.000000000  0.000000000  0.080933653

  length of vectors
    15.132599831 17.473600388 12.355799675     0.066082498  0.057229190  0.080933653

  position of ions in fractional coordinates (direct lattice)
     0.000034487  0.000047910  0.000040381
     0.999987909  0.000026656  0.500006897
     0.999895925  0.249980695  0.000036654
     0.999770190  0.249949352  0.499998272
     0.000091045  0.500048739  0.000112601
     0.999855149  0.500022325  0.500016587
     0.000240276  0.750119574  0.000110091
     0.000184861  0.750106998  0.500046003
     0.166718865  0.999959334  0.000028943
     0.166663130  0.999870086  0.500015717
     0.166547432  0.249898115  0.999926185
     0.166345747  0.249758405  0.499873858
     0.166667811  0.499945734  0.999883815
     0.166122599  0.499837821  0.499720295
     0.166876896  0.749990987  0.999961083
     0.166773941  0.749955642  0.499939291
     0.333370486  0.999935674  0.000038247
     0.333346955  0.999818699  0.500026048
     0.333244858  0.249923255  0.999866742
     0.332877104  0.249541217  0.499726941
     0.333369791  0.499908517  0.999682429
     0.332004628  0.499577076  0.499099603
     0.333516839  0.749911701  0.999943672
     0.333440690  0.749759822  0.500006384
     0.500012572  0.999998791  0.000036233
     0.500001933  0.999934189  0.500026647
     0.499955976  0.250135726  0.999622100
     0.499748312  0.249839859  0.499826236
     0.500102612  0.500047677  0.999604859
     0.500146855  0.749961254  0.000163119
     0.500138651  0.749712417  0.500257486
     0.666675279  0.000087660  0.000043220
     0.666671744  0.000052847  0.500038528
     0.666623631  0.250148828  0.999927940
     0.666445187  0.250144572  0.500006436
     0.666923372  0.500220710  0.000159366
     0.665962991  0.500822403  0.501330489
     0.666910511  0.750149941  0.000312301
     0.666971886  0.750090497  0.500327441
     0.833362895  0.000120817  0.000065840
     0.833330005  0.000123419  0.500042768
     0.833268462  0.250083888  0.000090284
     0.833106433  0.250132828  0.500101557
     0.833545717  0.500153751  0.000318783
     0.833421505  0.500230115  0.500315363
     0.833675432  0.750247201  0.000335955
     0.833622040  0.750232041  0.500160264
     0.083287082  0.124946339  0.000008116
     0.083190448  0.124890736  0.499980132
     0.083222166  0.374935176  0.999947535
     0.082975012  0.374868976  0.499887979
     0.083549953  0.625040970  0.000022763
     0.083361178  0.625016394  0.499936207
     0.083485858  0.875043376  0.000033781
     0.083441685  0.875004721  0.499991043
     0.249973620  0.124916070  0.999955252
     0.249826773  0.124731274  0.499920214
     0.249846543  0.374875955  0.999736525
     0.249373159  0.374623468  0.499630074
     0.250231768  0.624897700  0.999637045
     0.249838642  0.624859157  0.499782549
     0.250125618  0.874946560  0.999997063
     0.250103417  0.874839399  0.500003387
     0.416653752  0.124987677  0.999908328
     0.416545080  0.124830835  0.499899215
     0.416598119  0.375007255  0.999628434
     0.415624337  0.374123208  0.499111113
     0.416989604  0.624869973  0.999428184
     0.416471978  0.624669491  0.499918746
     0.416755297  0.874940511  0.000065203
     0.416766570  0.874796027  0.500077799
     0.583304570  0.125090539  0.999911782
     0.583237143  0.125007103  0.499943317
     0.583341092  0.375275999  0.999433914
     0.582896473  0.374976349  0.499931887
     0.583674057  0.625118314  0.000154992
     0.583780321  0.624112650  0.501333862
     0.583419727  0.875022428  0.000170519
     0.583413303  0.874967004  0.500120544
     0.749968116  0.125101781  0.999986550
     0.749869972  0.125116767  0.500003052
     0.749995403  0.375141628  0.000171648
     0.749680843  0.375264533  0.500259443
     0.750628808  0.625345877  0.000760105
     0.750473352  0.625294667  0.500280369
     0.750142490  0.875143768  0.000154072
     0.750148553  0.875138972  0.500095165
     0.916619460  0.125044522  0.000028415
     0.916524228  0.125052496  0.500016628
     0.916617405  0.375060940  0.000165887
     0.916453571  0.375044150  0.500095401
     0.917046083  0.625186443  0.000352047
     0.916920276  0.625172648  0.500132590
     0.916836468  0.875155726  0.000111745
     0.916808312  0.875138738  0.500045933
     0.999913393  0.083311585  0.333335242
     0.999968888  0.083358128  0.833365750
     0.999764812  0.333285708  0.333316495
     0.999884678  0.333318491  0.833401321
     0.000011323  0.583373952  0.333367835
     0.000368218  0.583458025  0.833533725
     0.000094422  0.833403805  0.333358948
     0.000235939  0.833470633  0.833415671
     0.166593959  0.083202798  0.333291947
     0.166645810  0.083233425  0.833341398
     0.166347656  0.333146899  0.333099121
     0.166457532  0.333176505  0.833230992
     0.166569135  0.583261727  0.333136855
     0.166812529  0.583299126  0.833266610
     0.166753489  0.833295138  0.333303318
     0.166879836  0.833297368  0.833318397
     0.333278469  0.083189138  0.333256346
     0.333308464  0.083217862  0.833313899
     0.332882575  0.333001464  0.332811474
     0.333069261  0.333133191  0.833151706
     0.333138057  0.583170870  0.333040135
     0.333649826  0.583065970  0.832463409
     0.333383361  0.833183965  0.333341997
     0.333508457  0.833204052  0.833308347
     0.499961128  0.083288919  0.333262905
     0.499974716  0.083339130  0.833300865
     0.499749089  0.333215795  0.333063008
     0.499878672  0.333615933  0.832444942
     0.499904758  0.582841985  0.333930137
     0.500828272  0.583390323  0.831763468
     0.500041478  0.833179329  0.333504417
     0.500149937  0.833324196  0.833451817
     0.666623413  0.083370454  0.333307642
     0.666632587  0.083470304  0.833297395
     0.666439753  0.333421059  0.333434722
     0.666618837  0.333555100  0.833272864
     0.666665081  0.583357026  0.333638675
     0.668701403  0.584401234  0.835267358
     0.666733320  0.833318329  0.333504668
     0.666928875  0.833545789  0.833547575
     0.833256320  0.083390869  0.333329731
     0.833292126  0.083478478  0.833329403
     0.833090357  0.333427476  0.333482244
     0.833300410  0.333460498  0.833459134
     0.833406241  0.583445861  0.333527528
     0.834256504  0.583700244  0.833963665
     0.833430554  0.833436822  0.333428039
     0.833678940  0.833663265  0.833539285
     0.083146006  0.208219389  0.333274066
     0.083212643  0.208249878  0.833346196
     0.083077547  0.458251141  0.333175398
     0.083290705  0.458290505  0.833345252
     0.083443842  0.708348701  0.333290690
     0.083611644  0.708401707  0.833384290
     0.083366207  0.958310034  0.333328491
     0.083442197  0.958343394  0.833363534
     0.249759418  0.208110998  0.333154457
     0.249839603  0.208163452  0.833291497
     0.249490080  0.458103497  0.332810220
     0.249774520  0.458163355  0.833183906
     0.250031707  0.708232600  0.333207230
     0.250246361  0.708194029  0.833211447
     0.250020913  0.958216217  0.333365563
     0.250094401  0.958233984  0.833367705
     0.416501142  0.208198753  0.333141353
     0.416558814  0.208273607  0.833238820
     0.415851909  0.457904192  0.332198972
     0.416448226  0.458191312  0.832929521
     0.416671700  0.708128178  0.333441312
     0.416906806  0.708210001  0.833279012
     0.416682645  0.958211463  0.333395856
     0.416726121  0.958272125  0.833379423
     0.583218935  0.208351199  0.333202683
     0.583226072  0.208489187  0.833191848
     0.582786756  0.458501448  0.333939933
     0.583793431  0.458932289  0.831780587
     0.583403710  0.708017140  0.333916227
     0.583806283  0.708594896  0.833675847
     0.583347138  0.958302659  0.333397403
     0.583404609  0.958387628  0.833412882
     0.749847704  0.208415446  0.333382423
     0.749904027  0.208514075  0.833344927
     0.749650245  0.458564652  0.333901727
     0.750417346  0.458601885  0.833706119
     0.750133084  0.708428583  0.333568410
     0.750781212  0.708943337  0.833955864
     0.750008019  0.958396758  0.333396368
     0.750084404  0.958519700  0.833434701
     0.916475783  0.208344396  0.333379074
     0.916561381  0.208384222  0.833393191
     0.916506376  0.458383696  0.333474369
     0.916841470  0.458448918  0.833560637
     0.916820748  0.708457316  0.333491120
     0.917134747  0.708605441  0.833601622
     0.916673922  0.958397157  0.333356808
     0.916772587  0.958497522  0.833403608
     0.999898244  0.166639132  0.166657431
     0.999852134  0.166650562  0.666687153
     0.999872193  0.416657873  0.166694232
     0.999833478  0.416660224  0.666730619
     0.000176159  0.666750947  0.166772455
     0.000403608  0.666847831  0.666764077
     0.000069918  0.916724244  0.166697785
     0.000148875  0.916778448  0.666698160
     0.166564605  0.166564822  0.166598671
     0.166441557  0.166435387  0.666633457
     0.166448274  0.416553972  0.166395038
     0.166087843  0.416424896  0.666526270
     0.166791564  0.666635075  0.166505846
     0.166819569  0.666640737  0.666595211
     0.166732589  0.916642975  0.166673923
     0.166800658  0.916544156  0.666680336
     0.333270710  0.166583777  0.166543598
     0.333043336  0.166295920  0.666578730
     0.333052955  0.416498547  0.166119778
     0.331995680  0.415936889  0.666386177
     0.333448788  0.666558201  0.166419014
     0.333657348  0.665983051  0.666621870
     0.333378231  0.916591508  0.166691591
     0.333482707  0.916427371  0.666702318
     0.499963028  0.166696497  0.166474273
     0.499890437  0.166619406  0.666578686
     0.499929400  0.416675694  0.166402058
     0.500079433  0.666484528  0.166902594
     0.500823517  0.665606440  0.667312446
     0.500025830  0.916606389  0.166765684
     0.500108201  0.916590372  0.666740667
     0.666605501  0.166745125  0.166604056
     0.666434243  0.166941884  0.666659676
     0.666477768  0.416817143  0.166909866
     0.665959501  0.417833227  0.667327863
     0.666783630  0.666714876  0.166987785
     0.668700442  0.668282013  0.667481110
     0.666685187  0.916686729  0.166781389
     0.666798676  0.916807494  0.666786404
     0.833254978  0.166713786  0.166694358
     0.833145676  0.166871936  0.666703027
     0.833194548  0.416766129  0.166948250
     0.833399535  0.416934510  0.666915267
     0.833569248  0.666816554  0.167027375
     0.834268712  0.667203493  0.666968589
     0.833382132  0.916753023  0.166748168
     0.833532913  0.916958098  0.666748567
     0.083327495  0.041634610  0.166666706
     0.083321185  0.041607502  0.666678628
     0.083179250  0.291588433  0.166599601
     0.083033100  0.291517883  0.666631844
     0.083337996  0.541661870  0.166610927
     0.083222345  0.541642773  0.666626226
     0.083473475  0.791701535  0.166668405
     0.083564168  0.791714947  0.666681847
     0.249992738  0.041583238  0.166636522
     0.249965010  0.041437975  0.666662270
     0.249801256  0.291517032  0.166404174
     0.249474464  0.291238854  0.666521487
     0.249945493  0.541581783  0.166391773
     0.248910560  0.541412956  0.666397882
     0.250107431  0.791608753  0.166606624
     0.250240028  0.791392653  0.666642109
     0.416675200  0.041617407  0.166646394
     0.416658785  0.041540456  0.666664194
     0.416543744  0.291615168  0.166380552
     0.415836605  0.290820442  0.666409310
     0.416665073  0.541597528  0.166416744
     0.416731076  0.791556037  0.166751606
     0.416985361  0.791206799  0.666767109
     0.583328122  0.041687049  0.166647833
     0.583323150  0.041710267  0.666673502
     0.583259061  0.291759946  0.166426289
     0.582778337  0.292160797  0.666625157
     0.583315434  0.541663459  0.166824339
     0.583400735  0.791578477  0.166946619
     0.583691364  0.791717290  0.666892540
     0.749974249  0.041727357  0.166667004
     0.749947631  0.041856815  0.666676573
     0.749871422  0.291753211  0.166738732
     0.749631320  0.292124773  0.666769544
     0.750065206  0.541762007  0.166940034
     0.752528181  0.542463851  0.667481151
     0.750113225  0.791749055  0.166853105
     0.750635839  0.792267833  0.666920232
     0.916645115  0.041703317  0.166678669
     0.916646773  0.041812243  0.666689639
     0.916514104  0.291679260  0.166740070
     0.916483774  0.291729867  0.666747067
     0.916730427  0.541740387  0.166838925
     0.917350804  0.541891358  0.666911707
     0.916818241  0.791781466  0.166798125
     0.917058259  0.791961656  0.666783387
     0.000005841  0.000032889  0.124998297
     0.000012151  0.000059997  0.624986390
     0.999859861  0.249965986  0.124996598
     0.999769168  0.249952574  0.624983171
     0.999995340  0.500005651  0.125054076
     0.000110991  0.500024748  0.625038792
     0.000154086  0.750079058  0.125065402
     0.000300236  0.750149608  0.625033174
     0.166688244  0.999964182  0.124986334
     0.166686586  0.999855256  0.624975379
     0.166515118  0.249886055  0.124866878
     0.166275100  0.249705865  0.624881631
     0.166602932  0.499927134  0.124826078
     0.165982555  0.499776163  0.624753311
     0.166819255  0.749988231  0.124924933
     0.166849585  0.749937624  0.624917951
     0.333359094  0.999940142  0.124997999
     0.333385712  0.999810684  0.624988445
     0.333220118  0.249918466  0.124811898
     0.332697504  0.249399688  0.624744786
     0.333268137  0.499905514  0.124724969
     0.330805162  0.499203670  0.624183867
     0.333461921  0.749914280  0.124926271
     0.333702023  0.749542718  0.624895474
     0.500005191  0.999980450  0.125017170
     0.500010163  0.999957232  0.624991516
     0.499932578  0.250089044  0.124718384
     0.499641949  0.249950231  0.624772478
     0.500017879  0.500004062  0.124840664
     0.500074252  0.749907545  0.125238714
     0.500554976  0.749506694  0.625039861
     0.666658144  0.000050092  0.125018609
     0.666674559  0.000127043  0.625000824
     0.666602268  0.250111484  0.124913397
     0.666347983  0.250460722  0.624897909
     0.666668271  0.500069993  0.125248259
     0.666789600  0.750052323  0.125284451
     0.667496739  0.750847049  0.625255708
     0.833340575  0.000084261  0.125028481
     0.833368303  0.000229524  0.625002748
     0.833225882  0.250058768  0.125058379
     0.833093285  0.250274868  0.625022909
     0.833387820  0.500085738  0.125273230
     0.834422753  0.500254565  0.625267136
     0.833532057  0.750150459  0.125260829
     0.833858849  0.750428637  0.625143531
     0.083263418  0.124943277  0.124967218
     0.083184461  0.124889073  0.624966858
     0.083157177  0.374916574  0.124892548
     0.082929728  0.374819690  0.624900941
     0.083461143  0.625009648  0.124970771
     0.083499858  0.625007297  0.624934399
     0.083435092  0.875028374  0.125007572
     0.083481202  0.875016944  0.624977865
     0.249951181  0.124914498  0.124916835
     0.249800400  0.124709423  0.624916451
     0.249764065  0.374850967  0.124637628
     0.249064601  0.374464028  0.624696429
     0.250138765  0.624901392  0.124716753
     0.249933778  0.624733011  0.624749751
     0.250078335  0.874953720  0.124970645
     0.250187637  0.874795570  0.624961991
     0.416648157  0.124980792  0.124883614
     0.416534668  0.124860027  0.624878614
     0.416549714  0.374952645  0.124677218
     0.414632902  0.373385508  0.624183908
     0.416855576  0.624850378  0.124755137
     0.417373843  0.623834294  0.624337155
     0.416727843  0.874922381  0.125060947
     0.416899101  0.874725622  0.625005342
     0.583307483  0.125061132  0.124899319
     0.583225112  0.125077149  0.624924351
     0.583253880  0.375182993  0.124762409
     0.582509796  0.376061081  0.624352572
     0.583403913  0.624991827  0.125262945
     0.583370285  0.874971009  0.125190730
     0.583442876  0.875048100  0.625086332
     0.749955112  0.125076013  0.124973412
     0.749850636  0.125240150  0.624962700
     0.749884555  0.375109320  0.125245989
     0.749675995  0.375684470  0.625043148
     0.750280388  0.625168974  0.125545225
     0.751337663  0.625730632  0.625278841
     0.750062633  0.875083729  0.125121405
     0.750290007  0.875371586  0.625086288
     0.916600770  0.125024546  0.124991080
     0.916532701  0.125123365  0.624984682
     0.916541795  0.375032446  0.125159157
     0.916513790  0.375026784  0.625069807
     0.916885085  0.625113549  0.125269965
     0.917245516  0.625242625  0.625138748
     0.916768754  0.875102684  0.125066332
     0.916891802  0.875232119  0.625031561
     0.999891139  0.083321586  0.458306520
     0.999967129  0.083354946  0.958341593
     0.999721692  0.333263281  0.458285764
     0.999889494  0.333316287  0.958379394
     0.000042631  0.583374453  0.458324802
     0.000255789  0.583413817  0.958494686
     0.000120693  0.833415095  0.458323858
     0.000187330  0.833445584  0.958396018
     0.166560772  0.083167458  0.458266446
     0.166659437  0.083267823  0.958313276
     0.166198612  0.333059547  0.458068432
     0.166512611  0.333207672  0.958178964
     0.166491889  0.583216040  0.458109417
     0.166826983  0.583281262  0.958195715
     0.166771978  0.833280751  0.458276863
     0.166857576  0.833320577  0.958291010
     0.333248939  0.083145280  0.458235353
     0.333325324  0.083268222  0.958273716
     0.332552131  0.332721651  0.457714190
     0.333200259  0.333236405  0.958101674
     0.332915997  0.583063073  0.457963935
     0.333683098  0.583100306  0.957768357
     0.333429316  0.833150898  0.458325127
     0.333485639  0.833249527  0.958287661
     0.499928704  0.083277352  0.458257172
     0.499986175  0.083362321  0.958272681
     0.499527030  0.333070092  0.457994207
     0.499929603  0.333647848  0.957753857
     0.499539882  0.582732669  0.459889467
     0.500546557  0.583163510  0.957730151
     0.500107241  0.833175786  0.458478206
     0.500114378  0.833313774  0.958467401
     0.666607223  0.083392855  0.458290631
     0.666650699  0.083453517  0.958274228
     0.666426538  0.333454987  0.458391042
     0.666661644  0.333536810  0.958228772
     0.666885118  0.583473646  0.458740533
     0.667481435  0.583760766  0.959471112
     0.666774530  0.833391366  0.458431234
     0.666832202  0.833466220  0.958528731
     0.833238912  0.083430996  0.458302349
     0.833312400  0.083448763  0.958304521
     0.833086952  0.333470959  0.458458607
     0.833301606  0.333432388  0.958462854
     0.833558793  0.583501603  0.458486148
     0.833843233  0.583561461  0.958859864
     0.833493710  0.833501521  0.458378557
     0.833573895  0.833553975  0.958515627
     0.083097397  0.208194340  0.458254383
     0.083238914  0.208261168  0.958311136
     0.082965118  0.458206933  0.458136329
     0.083322013  0.458291006  0.958302249
     0.083448658  0.708346497  0.458268733
     0.083568524  0.708379280  0.958353589
     0.083364448  0.958306852  0.458304304
     0.083419943  0.958353395  0.958334842
     0.249654373  0.208001708  0.458130769
     0.249902759  0.208228151  0.958242045
     0.249076809  0.457964714  0.457706389
     0.249927072  0.458219097  0.958142556
     0.250032903  0.708204490  0.458210920
     0.250242956  0.708237512  0.958187840
     0.250041187  0.958186502  0.458340651
     0.250076993  0.958274111  0.958340353
     0.416404469  0.208119184  0.458122479
     0.416600024  0.208346644  0.958165416
     0.414631941  0.457263724  0.456402696
     0.416668263  0.458307932  0.958031409
     0.416714507  0.708109888  0.458397190
     0.416893591  0.708243929  0.958235362
     0.416700757  0.958194676  0.458372659
     0.416709931  0.958294526  0.958362442
     0.583183376  0.208340777  0.458218237
     0.583291835  0.208485644  0.958165667
     0.582505041  0.458274635  0.459906586
     0.583428555  0.458822973  0.957739947
     0.583454641  0.708049055  0.459225112
     0.583584224  0.708449193  0.958607076
     0.583358597  0.958325850  0.458369189
     0.583372185  0.958376061  0.958407179
     0.749824886  0.208460921  0.458361707
     0.749949982  0.208481008  0.958328087
     0.749683517  0.458598988  0.459206645
     0.750195286  0.458494088  0.958629949
     0.750264082  0.708531797  0.458518348
     0.750450768  0.708663524  0.958858610
     0.750024879  0.958447118  0.458356155
     0.750054874  0.958475842  0.958413738
     0.916453523  0.208367605  0.458351657
     0.916579870  0.208369835  0.958366766
     0.916520830  0.458365832  0.458403444
     0.916764224  0.458403231  0.958533229
     0.916875827  0.708488483  0.458439062
     0.916985703  0.708518089  0.958570963
     0.916687549  0.958431555  0.458328656
     0.916739400  0.958462182  0.958378137
     0.999847478  0.166624130  0.291631207
     0.999891651  0.166662785  0.791673915
     0.999783383  0.416626551  0.291642225
     0.999972158  0.416651127  0.791728751
     0.000111170  0.666732345  0.291717453
     0.000358324  0.666798545  0.791776979
     0.000046254  0.916721182  0.291656872
     0.000142888  0.916776785  0.791684826
     0.166496891  0.166511780  0.291553243
     0.166525047  0.166528768  0.791619025
     0.166287276  0.416481078  0.291312941
     0.166413083  0.416494873  0.791532368
     0.166715954  0.666606581  0.291499101
     0.166879788  0.666623371  0.791569557
     0.166713899  0.916622999  0.291636573
     0.166809131  0.916615025  0.791648330
     0.333190853  0.166523738  0.291510916
     0.333184790  0.166528534  0.791569793
     0.332704535  0.416321644  0.290904883
     0.332859991  0.416372854  0.791384589
     0.333337940  0.666525893  0.291493340
     0.333652500  0.666402988  0.791405515
     0.333365227  0.916565740  0.291678438
     0.333463371  0.916550754  0.791661906
     0.499913586  0.166645078  0.291494469
     0.499920010  0.166700502  0.791544414
     0.499659256  0.416549207  0.291509996
     0.499552992  0.417554871  0.790331096
     0.499992221  0.666391522  0.292231074
     0.500436840  0.666691172  0.791733071
     0.500028743  0.916576982  0.291753206
     0.500096170  0.916660418  0.791721641
     0.666578047  0.166726995  0.291599785
     0.666566774  0.166871479  0.791587159
     0.666343740  0.416797548  0.292236804
     0.666861366  0.416998030  0.791746212
     0.666735225  0.666660266  0.292036554
     0.667709007  0.667544313  0.792553845
     0.666679592  0.916679844  0.291756660
     0.666788264  0.916836686  0.791765743
     0.833207695  0.166720946  0.291667925
     0.833229896  0.166828107  0.791661571
     0.833101545  0.416769821  0.292027943
     0.833494671  0.416808364  0.791882409
     0.833486770  0.666791566  0.291928463
     0.833960154  0.667044053  0.792034884
     0.833359693  0.916751451  0.291709736
     0.833506540  0.916936247  0.791744744
     0.083298849  0.041619589  0.291624607
     0.083345427  0.041640843  0.791658061
     0.083093060  0.291547917  0.291554897
     0.083148475  0.291560493  0.791618955
     0.083242291  0.541618782  0.291552387
     0.083478187  0.541645196  0.791648371
     0.083437411  0.791686826  0.291628334
     0.083563146  0.791718169  0.791666686
     0.249970418  0.041546682  0.291599148
     0.250003308  0.041544080  0.791622190
     0.249657881  0.291420290  0.291329033
     0.249711273  0.291435450  0.791504694
     0.249787596  0.541513770  0.291346205
     0.249911808  0.541437406  0.791349595
     0.250064851  0.791583633  0.291574704
     0.250226880  0.791534693  0.791563401
     0.416658065  0.041579839  0.291621768
     0.416661600  0.041614652  0.791626430
     0.416422833  0.291517550  0.291352687
     0.416361458  0.291576994  0.791337517
     0.416409972  0.541446811  0.291505622
     0.417370353  0.540845118  0.790334469
     0.416709713  0.791518693  0.291737048
     0.416888157  0.791522949  0.791658522
     0.583320741  0.041668708  0.291628755
     0.583331380  0.041733310  0.791638311
     0.583186458  0.291706237  0.291501869
     0.583194662  0.291955074  0.791407472
     0.583230701  0.541619844  0.292060129
     0.583377337  0.791531795  0.292042888
     0.583585001  0.791827662  0.791838722
     0.749962857  0.041731825  0.291626741
     0.749986388  0.041848800  0.791638910
     0.749816504  0.291755790  0.291721316
     0.749892653  0.291907669  0.791658574
     0.749963552  0.541759004  0.291982559
     0.751328715  0.542090445  0.792565355
     0.750088485  0.791744266  0.291798246
     0.750456239  0.792126304  0.791938017
[...]
 196      -0.005     0.002     0.005       1.286
 197      -0.005    -0.003     0.017       0.125
 198      -0.001     0.000     0.002       0.761
 199      -0.003     0.001     0.004       1.059
 200       0.001    -0.001    -0.002       1.447
 201       0.004    -0.003    -0.006       1.055
 202       0.003     0.000    -0.009       0.307
 203       0.016    -0.014    -0.017       1.786
 204       0.005     0.002    -0.005       0.520
 205      -0.011     0.010    -0.013      -1.542
 206      -0.001    -0.000     0.002       0.465
 207      -0.003     0.001     0.006       0.620
 208      -0.003     0.002     0.005       0.950
 209       0.050     0.049     0.096      -0.011
 210       0.054     0.047     0.104      -0.073
 211      -0.048    -0.029     0.078       0.236
 212       0.008    -0.002    -0.008       1.216
 213      -0.023    -0.017     0.044       0.115
 214      -0.003    -0.000     0.003       0.819
 215      -0.006    -0.004     0.007       0.235
 216       0.005     0.002    -0.005       0.550
 217      -0.012     0.011    -0.013      -1.772
 218       0.016    -0.015    -0.017       1.812
 219      -0.012    -0.009     0.016       0.206
 220       0.348     0.340     0.581      -0.013
 221       0.004     0.001    -0.005       0.791
 222      -0.004    -0.003     0.015       0.037
 223       0.003     0.001    -0.005       0.521
 224      -0.006    -0.005     0.015       0.030
 225      -0.012    -0.008     0.016       0.239
 226       0.356     0.348     0.593      -0.015
 227       0.008     0.003     0.029      -0.200
 228       0.900     0.863     1.560      -0.024
 229      -0.004     0.001     0.004       1.179
 230      -0.001    -0.000     0.017       0.058
 231       0.002    -0.000    -0.002       1.140
 232       0.006    -0.003    -0.006       1.543
 233       0.005     0.000    -0.008       0.519
 234       0.002    -0.002     0.050      -0.089
 235       0.009    -0.001     0.025      -0.415
 236       0.008     0.006     0.081      -0.019
 237      -0.002    -0.000     0.002       0.665
 238       0.009     0.006     0.027      -0.114
 239      -0.001    -0.000     0.002       0.571
 240       0.003     0.000    -0.004       0.658
 241       0.002     0.000    -0.003       0.661
 242      -0.004    -0.001     0.009       0.301
 243      -0.006     0.003     0.007       1.405
 244       0.121     0.112     0.145      -0.062
 245      -0.001     0.001     0.003       0.321
 246       0.002    -0.002     0.008      -0.491
 247      -0.002    -0.001     0.003       0.281
 248       0.007     0.005     0.019      -0.104
 249       0.002    -0.001    -0.006       0.523
 250      -0.017     0.009    -0.019      -1.387
 251       0.008     0.000    -0.010       0.781
 252       0.430     0.426     0.648      -0.006
 253       0.002     0.001    -0.003       0.551
 254      -0.007    -0.004     0.012       0.249
 255      -0.004    -0.000     0.004       0.767
 256      -0.005    -0.004     0.009       0.018
 257       0.008    -0.001    -0.008       1.136
 258       0.365     0.364     0.607      -0.003
 259       0.016    -0.014    -0.018       1.652
 260       0.004     0.001    -0.006       0.548
 261      -0.018     0.014    -0.020      -1.625
 262      -0.004    -0.000     0.005       0.870
 263      -0.006    -0.005     0.009       0.059
 264       0.007    -0.002    -0.009       1.095
 265      -0.018    -0.013     0.049       0.099
 266      -0.018    -0.014     0.023       0.188
 267       0.005     0.000    -0.008       0.608
 268      -0.005    -0.001     0.046       0.086
 269      -0.003    -0.001     0.004       0.628
 270      -0.002    -0.001     0.009       0.113
 271       0.004     0.000    -0.005       0.618
 272      -0.017     0.014    -0.019      -1.630
 273       0.011     0.002     0.030      -0.297
 274       0.973     0.931     1.603      -0.026
 275       0.004     0.001    -0.005       0.490
 276       0.079     0.074     0.171      -0.033
 277      -0.001    -0.001     0.002       0.173
 278       0.002    -0.002     0.006      -0.599
 279       0.002     0.001    -0.003       0.353
 280      -0.004    -0.000     0.011       0.328
 281       0.005     0.004    -0.008       0.127
 282       0.151     0.140     0.218      -0.050
 283      -0.002     0.001     0.003       0.920
 284      -0.003    -0.001     0.015       0.149
 285      -0.001    -0.000     0.002       0.571
 286       0.003     0.000    -0.004       0.658
 287      -0.001     0.001     0.003       0.321
 288       0.002    -0.002     0.008      -0.491
 289      -0.006     0.003     0.007       1.405
 290       0.121     0.112     0.145      -0.063
 291       0.002     0.000    -0.003       0.661
 292      -0.004    -0.001     0.009       0.300
 293      -0.001    -0.001     0.002       0.173
 294       0.002    -0.002     0.006      -0.599
 295      -0.002     0.001     0.003       0.920
 296      -0.003    -0.001     0.015       0.149
 297       0.005     0.004    -0.008       0.127
 298       0.151     0.140     0.218      -0.050
 299       0.002     0.001    -0.003       0.353
 300      -0.004    -0.000     0.011       0.328
 301      -0.003    -0.001     0.004       0.628
 302      -0.002    -0.001     0.009       0.113
 303       0.004     0.001    -0.005       0.490
 304       0.079     0.074     0.171      -0.033
 305       0.011     0.002     0.030      -0.297
 306       0.973     0.931     1.603      -0.026
 307       0.004     0.000    -0.005       0.618
 308      -0.017     0.014    -0.019      -1.630
 309      -0.004    -0.000     0.005       0.870
 310      -0.006    -0.005     0.009       0.059
 311       0.005     0.000    -0.008       0.608
 312      -0.005    -0.001     0.046       0.086
 313      -0.018    -0.014     0.023       0.188
 314       0.007    -0.002    -0.009       1.095
 315      -0.018    -0.013     0.049       0.099
 316      -0.004    -0.000     0.004       0.767
 317      -0.005    -0.004     0.009       0.018
 318       0.004     0.001    -0.006       0.548
 319      -0.018     0.014    -0.020      -1.625
 320       0.016    -0.014    -0.018       1.652
 321       0.008    -0.001    -0.008       1.136
 322       0.365     0.364     0.607      -0.003
 323      -0.002    -0.001     0.003       0.281
 324       0.007     0.005     0.019      -0.104
 325       0.002     0.001    -0.003       0.551
 326      -0.007    -0.004     0.012       0.249
 327       0.008     0.000    -0.010       0.781
 328       0.430     0.426     0.648      -0.006
 329       0.002    -0.001    -0.006       0.523
 330      -0.017     0.009    -0.019      -1.387
 331      -0.001     0.000     0.002       0.761
 332      -0.003     0.001     0.004       1.059
 333      -0.005     0.002     0.005       1.286
 334      -0.005    -0.003     0.017       0.125
 335       0.005     0.002    -0.006       0.427
 336      -0.001     0.000     0.023       0.049
 337       0.000     0.000    -0.001       0.294
 338       0.003    -0.002     0.004      -1.393
 339      -0.002    -0.000     0.002       0.665
 340       0.009     0.006     0.027      -0.114
 341       0.009    -0.001     0.025      -0.415
 342       0.008     0.006     0.081      -0.019
 343       0.005     0.000    -0.008       0.519
 344       0.002    -0.002     0.050      -0.089
 345       0.002    -0.000    -0.002       1.140
 346       0.006    -0.003    -0.006       1.543
 347      -0.004     0.001     0.004       1.179
 348      -0.001    -0.000     0.017       0.058
 349       0.008     0.003     0.029      -0.200
 350       0.900     0.863     1.560      -0.024
 351      -0.012    -0.008     0.016       0.239
 352       0.356     0.348     0.593      -0.015
 353       0.003     0.001    -0.005       0.521
 354      -0.006    -0.005     0.015       0.030
 355       0.004     0.001    -0.005       0.791
 356      -0.004    -0.003     0.015       0.037
 357      -0.012    -0.009     0.016       0.206
 358       0.348     0.340     0.581      -0.013
 359       0.016    -0.015    -0.017       1.812
 360       0.005     0.002    -0.005       0.550
 361      -0.012     0.011    -0.013      -1.772
 362      -0.003    -0.000     0.003       0.819
 363      -0.006    -0.004     0.007       0.235
 364       0.008    -0.002    -0.008       1.216
 365      -0.023    -0.017     0.044       0.115
 366       0.054     0.047     0.104      -0.073
 367      -0.048    -0.029     0.078       0.236
 368      -0.003     0.002     0.005       0.950
 369       0.050     0.049     0.096      -0.011
 370      -0.001    -0.000     0.002       0.465
 371      -0.003     0.001     0.006       0.620
 372       0.005     0.002    -0.005       0.520
 373      -0.011     0.010    -0.013      -1.542
 374       0.003     0.000    -0.009       0.307
 375       0.016    -0.014    -0.017       1.786
 376       0.001    -0.001    -0.002       1.447
 377       0.004    -0.003    -0.006       1.055
 378      -0.002     0.002     0.003       1.212
 379       0.002    -0.000    -0.002       0.927
 380       0.003    -0.002     0.013      -0.381
 381      -0.004    -0.000     0.005       0.697
 382      -0.010    -0.004     0.011       0.543
 383       0.008    -0.001    -0.008       1.097
 384      -0.003    -0.000     0.003       0.934
 385       0.002    -0.001    -0.003       0.975
 386      -0.003    -0.000     0.005       0.596
 387      -0.002    -0.001     0.003       0.410
 388       0.020     0.017     0.056      -0.043
 389       0.005    -0.004     0.008      -1.155
 390      -0.010    -0.006     0.016       0.213
 391      -0.007     0.001     0.011       0.804
 392      -0.003    -0.001     0.004       0.620
 393       0.002    -0.001    -0.003       1.388
 394      -0.004    -0.003     0.007       0.065
 395      -0.003    -0.001     0.005       0.447
 396       0.007     0.005     0.081      -0.033
 397       0.004    -0.001     0.025      -0.235
 398      -0.012     0.009     0.062       0.333
 399      -0.015     0.015    -0.022      -1.370
 400      -0.003    -0.003     0.012       0.046
 401      -0.004    -0.002     0.006       0.294
 402      -0.005    -0.004     0.009       0.193
 403      -0.005    -0.001     0.006       0.559
 404      -0.012     0.009     0.061       0.358
 405      -0.016     0.015    -0.021      -1.486
 406       0.367     0.357     0.602      -0.017
 407      -0.015    -0.010     0.057       0.103
 408      -0.011    -0.009     0.012       0.206
 409      -0.008    -0.004     0.009       0.466
 410      -0.004    -0.003     0.008       0.117
 411      -0.004    -0.001     0.006       0.468
 412       0.006     0.001     0.058      -0.079
 413      -0.010    -0.007     0.018       0.153
 414       0.057     0.035     0.169      -0.134
 415       0.344     0.339     0.597      -0.009
 416      -0.010     0.008    -0.013      -1.397
 417      -0.004    -0.001     0.012       0.283
 418      -0.003    -0.001     0.004       0.446
 419      -0.002    -0.001     0.004       0.285
 420      -0.010    -0.007     0.011       0.307
 421      -0.007    -0.004     0.008       0.371
 422       0.020    -0.015    -0.023       1.538
 423      -0.014     0.010    -0.021      -1.159
 424      -0.005    -0.004     0.007       0.147
 425      -0.005    -0.004     0.005       0.155
 426       0.003     0.000     0.011      -0.275
 427      -0.002     0.000     0.002       0.774
 428      -0.006    -0.001     0.018       0.279
 429      -0.006     0.002     0.009       0.939
 430      -0.004    -0.001     0.008       0.459
 431       0.004    -0.001    -0.005       0.975
 432       0.002     0.001    -0.003       0.707
 433       0.002    -0.000    -0.002       0.800
 434      -0.002    -0.001     0.016       0.085
 435      -0.003    -0.001     0.005       0.316
 436       0.007     0.002     0.079      -0.060
 437       0.008    -0.002     0.027      -0.361
 438      -0.002     0.001     0.021       0.147
 439      -0.006    -0.002     0.008       0.472
 440      -0.003    -0.001     0.005       0.308
 441      -0.002    -0.001     0.003       0.219
 442      -0.007    -0.007     0.015       0.021
 443      -0.006    -0.001     0.009       0.497
 444       0.896     0.856     1.562      -0.026
 445       0.007    -0.000     0.068      -0.117
 446       0.010     0.007     0.064      -0.048
 447      -0.009    -0.007     0.018       0.115
 448      -0.004    -0.003     0.008       0.185
 449      -0.004    -0.001     0.006       0.498
 450      -0.004    -0.003     0.019       0.052
 451      -0.007    -0.003     0.009       0.494
 452       0.358     0.350     0.592      -0.014
 453      -0.013    -0.008     0.059       0.086
 454      -0.019    -0.013     0.049       0.117
 455      -0.019    -0.017     0.020       0.109
 456      -0.006    -0.004     0.008       0.249
 457      -0.005    -0.002     0.007       0.500
 458      -0.004    -0.003     0.011       0.091
 459      -0.004    -0.002     0.006       0.311
 460      -0.026    -0.018     0.044       0.181
 461      -0.019    -0.016     0.020       0.156
 462       0.020    -0.015    -0.020       1.737
 463      -0.016     0.009    -0.019      -1.327
 464      -0.004    -0.003     0.006       0.131
 465      -0.003    -0.001     0.006       0.304
 466      -0.003     0.001     0.005       0.750
 467      -0.002    -0.001     0.003       0.401
 468       0.010    -0.009    -0.016       1.203
 469      -0.005     0.002     0.015       0.458
 470      -0.006    -0.002     0.011       0.423
 471      -0.006    -0.002     0.009       0.430
 472      -0.003    -0.000     0.003       0.720
 473       0.002    -0.001    -0.002       1.477
 474       0.002    -0.001     0.003      -0.879
 475       0.002     0.001    -0.003       0.355
 476      -0.006     0.001     0.007       1.000
 477      -0.009    -0.004     0.011       0.433
 478       0.004     0.000    -0.006       0.689
 479      -0.005    -0.002     0.014       0.253
 480       0.002    -0.000    -0.002       1.001
 481       0.003     0.000    -0.004       0.770
 482      -0.001    -0.000     0.005       0.178
 483      -0.003    -0.001     0.005       0.490
 484      -0.006     0.001     0.016       0.414
 485      -0.011    -0.004     0.016       0.397
 486      -0.005    -0.001     0.006       0.670
 487      -0.007    -0.002     0.014       0.309
 488      -0.001    -0.000     0.002       0.421
 489       0.003    -0.000    -0.004       0.861
 490      -0.004    -0.001     0.006       0.407
 491       0.003     0.002     0.018      -0.012
 492       0.072     0.060     0.163      -0.070
 493      -0.016     0.012     0.064       0.443
 494       0.002    -0.001     0.020      -0.147
 495       0.023     0.013     0.064      -0.157
 496      -0.003    -0.001     0.004       0.452
 497      -0.004    -0.003     0.007       0.094
 498      -0.004    -0.001     0.007       0.432
 499      -0.007    -0.006     0.013       0.128
 500       0.005    -0.000     0.054      -0.100
 501       0.361     0.354     0.601      -0.012
 502      -0.018     0.015    -0.021      -1.603
 503       0.054     0.037     0.168      -0.103
 504      -0.005    -0.001     0.006       0.732
 505      -0.006    -0.005     0.011       0.133
 506      -0.003    -0.001     0.006       0.431
 507      -0.006    -0.005     0.011       0.089
 508      -0.017     0.015    -0.022      -1.479
 509       0.046     0.029     0.160      -0.105
 510      -0.014    -0.009     0.018       0.272
 511      -0.048    -0.037     0.074       0.151
 512       0.005    -0.001    -0.005       1.148
 513      -0.006    -0.005     0.010       0.140
 514      -0.001    -0.001     0.003       0.109
 515      -0.004    -0.002     0.006       0.327
 516      -0.008     0.000     0.012       0.655
 517      -0.020    -0.016     0.021       0.188
 518       0.011     0.002     0.023      -0.393
 519       0.019     0.017     0.067      -0.035
 520      -0.002    -0.001     0.003       0.340
 521       0.005    -0.004    -0.005       1.652
 522      -0.002     0.000     0.002       0.801
 523       0.003    -0.000    -0.003       0.853
 524       0.003    -0.000     0.012      -0.234
 525      -0.004    -0.002     0.006       0.349
 526       0.007     0.000    -0.008       0.915
 527       0.002    -0.002     0.024      -0.170
 528       0.002     0.000    -0.002       0.937
 529       0.004    -0.001    -0.005       0.917
 530      -0.002    -0.001     0.003       0.165
 531      -0.003    -0.001     0.005       0.330
 532      -0.003    -0.000     0.015       0.212
 533      -0.008    -0.005     0.014       0.187
 534      -0.010    -0.004     0.014       0.406
 535      -0.003     0.003     0.050       0.122
 536      -0.002    -0.001     0.006       0.219
 537      -0.005    -0.003     0.009       0.241
 538      -0.004    -0.001     0.005       0.521
 539      -0.004    -0.003     0.008       0.115
 540      -0.008    -0.005     0.014       0.179
 541       0.002    -0.002     0.047      -0.086
 542       0.008     0.001     0.056      -0.127
 543       0.358     0.352     0.601      -0.009
 544      -0.004     0.000     0.011       0.413
 545      -0.010    -0.009     0.018       0.055
 546      -0.004    -0.001     0.006       0.578
 547      -0.005    -0.003     0.009       0.164
 548       0.002    -0.002     0.019      -0.214
 549       0.015     0.007     0.059      -0.128
 550       0.014     0.003     0.065      -0.175
 551      -0.005     0.001     0.014       0.448
 552      -0.019    -0.017     0.021       0.090
 553      -0.003    -0.001     0.004       0.348
 554      -0.004    -0.003     0.006       0.116
 555      -0.004    -0.000     0.009       0.432
 556      -0.011    -0.010     0.017       0.062
 557      -0.016    -0.008     0.018       0.423
 558      -0.037    -0.027     0.086       0.116
 559      -0.005    -0.001     0.007       0.535
 560      -0.017     0.010    -0.019      -1.448
 561      -0.001    -0.000     0.003       0.486
 562       0.003    -0.001    -0.003       1.153
 563      -0.003     0.001     0.005       0.797
 564      -0.005    -0.003     0.008       0.291
 565       0.009     0.001    -0.009       0.892
 566      -0.017    -0.013     0.018       0.247
 567       0.003    -0.001    -0.003       1.267
 568      -0.006    -0.004     0.009       0.235
 569      24.884    24.881    48.325      -0.000
 570      24.884    24.881    48.325      -0.000
 571      -1.002    -0.646    -1.141      -0.312
 572      -0.997    -0.646    -1.134      -0.310
 573      -1.006    -0.660    -1.141      -0.304
 574      -1.006    -0.660    -1.141      -0.304
 575      -0.997    -0.646    -1.134      -0.310
 576      -1.002    -0.646    -1.140      -0.312
 ---------------------------------------------------------------------



--------------------------------------------------------------------------------------------------------


     LOOP+:  cpu time  569.9202: real time  571.6047
    4ORBIT:  cpu time    0.0000: real time    0.0000

 total amount of memory used by VASP MPI-rank0   135651. kBytes
=======================================================================

   base      :      30000. kBytes
   nonlr-proj:       4919. kBytes
   fftplans  :       8132. kBytes
   grid      :      24015. kBytes
   one-center:        147. kBytes
   wavefun   :      68438. kBytes
 
  
  
 General timing and accounting informations for this job:
 ========================================================
  
                  Total CPU time used (sec):      590.234
                            User time (sec):      587.552
                          System time (sec):        2.682
                         Elapsed time (sec):      592.626
  
                   Maximum memory used (kb):      293976.
                   Average memory used (kb):          N/A
  
                          Minor page faults:       165524
                          Major page faults:            0
                 Voluntary context switches:         5091
