 vasp.6.2.0 18Jan21 (build May 04 2021 12:06:09) complex                        
  
 executed on             LinuxIFC date 2022.08.10  02:29:23
 running on   96 total cores
 distrk:  each k-point on   48 cores,    2 groups
 distr:  one band on NCORE=  12 cores,    4 groups


--------------------------------------------------------------------------------------------------------


 INCAR:
   SYSTEM = mos2 with carbon radical ion c_s defect
   PREC = Accurate
   ISTART = 0
   ICHARG = 2
   ISPIN = 2
   NELECT = 935
   NUPDOWN = 1
   NCORE = 12
   KPAR = 2
   ENCUT = 600
   NELM = 400
   NELMIN = 4
   EDIFF = 1E-07
   ALGO = Normal
   EDIFFG = -1E-02
   NSW = 0
   IBRION = -1
   ISYM = 0
   ISMEAR = 0
   SIGMA = 0.001
   NEDOS = 1000
   LWAVE = T
   LCHARG = T
   LVTOT = F
   LELF = F
   LHYPERFINE = T
   LEFG = T

 POTCAR:    PAW_PBE Mo 02Feb2006               
 POTCAR:    PAW_PBE S 06Sep2000                   
 POTCAR:    PAW_PBE C 08Apr2002                   
 -----------------------------------------------------------------------------
|                                                                             |
|           W    W    AA    RRRRR   N    N  II  N    N   GGGG   !!!           |
|           W    W   A  A   R    R  NN   N  II  NN   N  G    G  !!!           |
|           W    W  A    A  R    R  N N  N  II  N N  N  G       !!!           |
|           W WW W  AAAAAA  RRRRR   N  N N  II  N  N N  G  GGG   !            |
|           WW  WW  A    A  R   R   N   NN  II  N   NN  G    G                |
|           W    W  A    A  R    R  N    N  II  N    N   GGGG   !!!           |
|                                                                             |
|     You use a magnetic or noncollinear calculation, but did not specify     |
|     the initial magnetic moment with the MAGMOM tag. Note that a            |
|     default of 9.259e-3 will be used for all atoms. This ferromagnetic      |
|     setup may break the symmetry of the crystal, in particular it may       |
|     rule out finding an antiferromagnetic solution. Thence, we              |
|     recommend setting the initial magnetic moment manually or verifying     |
|     carefully that this magnetic setup is desired.                          |
|                                                                             |
 -----------------------------------------------------------------------------

 POTCAR:    PAW_PBE Mo 02Feb2006               
   VRHFIN =Mo: 4p5s4d                                                                               
   LEXCH  = PE                                                                                      
   EATOM  =  1862.2866 eV,  136.8742 Ry                                                             
                                                                                                    
   TITEL  = PAW_PBE Mo 02Feb2006                                                                 
   LULTRA =        F    use ultrasoft PP ?                                                          
   IUNSCR =        1    unscreen: 0-lin 1-nonlin 2-no                                               
   RPACOR =    2.200    partial core radius                                                         
   POMASS =   95.940; ZVAL   =   14.000    mass and valenz                                          
   RCORE  =    2.500    outmost cutoff radius                                                       
   RWIGS  =    2.750; RWIGS  =    1.455    wigner-seitz radius (au A)                               
   ENMAX  =  242.676; ENMIN  =  182.007 eV                                                          
   ICORE  =        3    local potential                                                             
   LCOR   =        T    correct aug charges                                                         
   LPAW   =        T    paw PP                                                                      
   EAUG   =  446.014                                                                                
   DEXC   =    0.000                                                                                
   RMAX   =    2.563    core radius for proj-oper                                                   
   RAUG   =    1.300    factor for augmentation sphere                                              
   RDEP   =    2.641    radius for radial grids                                                     
   RDEPT  =    2.031    core radius for aug-charge                                                  
                                                                                                    
   Atomic configuration                                                                             
   11 entries                                                                                       
     n  l   j            E        occ.                                                              
     1  0  0.50    -19819.0341   2.0000                                                             
     2  0  0.50     -2799.0127   2.0000                                                             
     2  1  1.50     -2502.0276   6.0000                                                             
     3  0  0.50      -476.4449   2.0000                                                             
     3  1  1.50      -379.1496   6.0000                                                             
     3  2  2.50      -220.9367  10.0000                                                             
     4  0  0.50       -64.3378   2.0000                                                             
     5  0  0.50        -4.0862   1.0000                                                             
     4  1  1.50       -38.4773   6.0000                                                             
     4  2  2.50        -3.7535   5.0000                                                             
     4  3  2.50        -1.3606   0.0000                                                             
   Description                                                                                      
     l       E           TYP  RCUT    TYP  RCUT                                                     
     0    -64.3377829     23  2.100                                                                 
     0     -4.0861640     23  2.400                                                                 
     1    -38.4772993     23  2.100                                                                 
     1     13.6058260     23  2.100                                                                 
     2     -3.7534941     23  2.400                                                                 
     2     -5.1140767     23  2.400                                                                 
     3     -4.0817478     23  2.500                                                                 
  local pseudopotential read in
  partial core-charges read in
  partial kinetic energy density read in
  atomic valenz-charges read in
  non local Contribution for L=           0  read in
    real space projection operators read in
  non local Contribution for L=           0  read in
    real space projection operators read in
  non local Contribution for L=           1  read in
    real space projection operators read in
  non local Contribution for L=           1  read in
    real space projection operators read in
  non local Contribution for L=           2  read in
    real space projection operators read in
  non local Contribution for L=           2  read in
    real space projection operators read in
    PAW grid and wavefunctions read in
 
   number of l-projection  operators is LMAX  =           6
   number of lm-projection operators is LMMAX =          18
 
 POTCAR:    PAW_PBE S 06Sep2000                   
   VRHFIN =S : s2p4                                                                                 
   LEXCH  = PE                                                                                      
   EATOM  =   276.8230 eV,   20.3459 Ry                                                             
                                                                                                    
   TITEL  = PAW_PBE S 06Sep2000                                                                     
   LULTRA =        F    use ultrasoft PP ?                                                          
   IUNSCR =        1    unscreen: 0-lin 1-nonlin 2-no                                               
   RPACOR =    1.500    partial core radius                                                         
   POMASS =   32.066; ZVAL   =    6.000    mass and valenz                                          
   RCORE  =    1.900    outmost cutoff radius                                                       
   RWIGS  =    2.200; RWIGS  =    1.164    wigner-seitz radius (au A)                               
   ENMAX  =  258.689; ENMIN  =  194.016 eV                                                          
   ICORE  =        2    local potential                                                             
   LCOR   =        T    correct aug charges                                                         
   LPAW   =        T    paw PP                                                                      
   EAUG   =  335.092                                                                                
   DEXC   =    0.000                                                                                
   RMAX   =    1.942    core radius for proj-oper                                                   
   RAUG   =    1.300    factor for augmentation sphere                                              
   RDEP   =    1.954    radius for radial grids                                                     
   RDEPT  =    1.744    core radius for aug-charge                                                  
                                                                                                    
   Atomic configuration                                                                             
    6 entries                                                                                       
     n  l   j            E        occ.                                                              
     1  0  0.50     -2405.8406   2.0000                                                             
     2  0  0.50      -211.7007   2.0000                                                             
     2  1  1.50      -156.4958   6.0000                                                             
     3  0  0.50       -17.2562   2.0000                                                             
     3  1  0.50        -7.0085   4.0000                                                             
     3  2  1.50        -6.8029   0.0000                                                             
   Description                                                                                      
     l       E           TYP  RCUT    TYP  RCUT                                                     
     0    -17.2561641     23  1.900                                                                 
     0    -15.8743224     23  1.900                                                                 
     1     -7.0085400     23  1.900                                                                 
     1     -2.7779785     23  1.900                                                                 
     2     -6.8029130     23  1.900                                                                 
  local pseudopotential read in
  partial core-charges read in
  partial kinetic energy density read in
  atomic valenz-charges read in
  non local Contribution for L=           0  read in
    real space projection operators read in
  non local Contribution for L=           0  read in
    real space projection operators read in
  non local Contribution for L=           1  read in
    real space projection operators read in
  non local Contribution for L=           1  read in
    real space projection operators read in
    PAW grid and wavefunctions read in
 
   number of l-projection  operators is LMAX  =           4
   number of lm-projection operators is LMMAX =           8
 
 POTCAR:    PAW_PBE C 08Apr2002                   
   VRHFIN =C: s2p2                                                                                  
   LEXCH  = PE                                                                                      
   EATOM  =   147.1560 eV,   10.8157 Ry                                                             
                                                                                                    
   TITEL  = PAW_PBE C 08Apr2002                                                                     
   LULTRA =        F    use ultrasoft PP ?                                                          
   IUNSCR =        1    unscreen: 0-lin 1-nonlin 2-no                                               
   RPACOR =    1.200    partial core radius                                                         
   POMASS =   12.011; ZVAL   =    4.000    mass and valenz                                          
   RCORE  =    1.500    outmost cutoff radius                                                       
   RWIGS  =    1.630; RWIGS  =    0.863    wigner-seitz radius (au A)                               
   ENMAX  =  400.000; ENMIN  =  300.000 eV                                                          
   ICORE  =        2    local potential                                                             
   LCOR   =        T    correct aug charges                                                         
   LPAW   =        T    paw PP                                                                      
   EAUG   =  644.873                                                                                
   DEXC   =    0.000                                                                                
   RMAX   =    1.529    core radius for proj-oper                                                   
   RAUG   =    1.300    factor for augmentation sphere                                              
   RDEP   =    1.501    radius for radial grids                                                     
   RDEPT  =    1.300    core radius for aug-charge                                                  
                                                                                                    
   Atomic configuration                                                                             
    4 entries                                                                                       
     n  l   j            E        occ.                                                              
     1  0  0.50      -273.3789   2.0000                                                             
     2  0  0.50       -13.7508   2.0000                                                             
     2  1  0.50        -5.2854   2.0000                                                             
     3  2  1.50        -5.4423   0.0000                                                             
   Description                                                                                      
     l       E           TYP  RCUT    TYP  RCUT                                                     
     0    -13.7508458     23  1.200                                                                 
     0     -8.2022199     23  1.200                                                                 
     1     -5.2854383     23  1.500                                                                 
     1     34.0145650     23  1.500                                                                 
     2     -5.4423304      7  1.500                                                                 
  local pseudopotential read in
  partial core-charges read in
  partial kinetic energy density read in
  atomic valenz-charges read in
  non local Contribution for L=           0  read in
    real space projection operators read in
  non local Contribution for L=           0  read in
    real space projection operators read in
  non local Contribution for L=           1  read in
    real space projection operators read in
  non local Contribution for L=           1  read in
    real space projection operators read in
    PAW grid and wavefunctions read in
 
   number of l-projection  operators is LMAX  =           4
   number of lm-projection operators is LMMAX =           8
 
 -----------------------------------------------------------------------------
|                                                                             |
|               ----> ADVICE to this user running VASP <----                  |
|                                                                             |
|     You have a (more or less) 'large supercell' and for larger cells it     |
|     might be more efficient to use real-space projection operators.         |
|     Therefore, try LREAL= Auto in the INCAR file.                           |
|     Mind: For very accurate calculation, you might also keep the            |
|     reciprocal projection scheme (i.e. LREAL=.FALSE.).                      |
|                                                                             |
 -----------------------------------------------------------------------------

  PAW_PBE Mo 02Feb2006               :
 energy of atom  1       EATOM=-1862.2866
 kinetic energy error for atom=    0.0041 (will be added to EATOM!!)
  PAW_PBE S 06Sep2000                   :
 energy of atom  2       EATOM= -276.8230
 kinetic energy error for atom=    0.0009 (will be added to EATOM!!)
  PAW_PBE C 08Apr2002                   :
 energy of atom  3       EATOM= -147.1560
 kinetic energy error for atom=    0.0057 (will be added to EATOM!!)
 
 
 POSCAR: Mo1 S2
  positions in direct lattice
  velocities in cartesian coordinates
 exchange correlation table for  LEXCH =        8
   RHO(1)=    0.500       N(1)  =     2000
   RHO(2)=  100.500       N(2)  =     4000
 


--------------------------------------------------------------------------------------------------------


 ion  position               nearest neighbor table
   1  0.167  0.111  0.253-  75 2.41  72 2.41  93 2.41  40 2.41  37 2.41  58 2.41  19 3.18   4 3.18
                            24 3.18  16 3.18  21 3.18  22 3.19
   2  0.167  0.444  0.251-  41 2.41  73 2.41  59 2.41  76 2.41  94 2.41  38 2.41  22 3.18  20 3.18
                             5 3.18  19 3.18  17 3.18  23 3.19
   3  0.167  0.777  0.252-  95 2.41  74 2.41  77 2.41  60 2.41  39 2.41  42 2.41  23 3.18  21 3.18
                            20 3.19   6 3.19  24 3.19  18 3.19
   4  0.333  0.112  0.252-  78 2.41  75 2.41  43 2.41  96 2.41  40 2.41  61 2.42  22 3.18   7 3.18
                             1 3.18  27 3.18  25 3.19  24 3.19
   5  0.333  0.445  0.248-  44 2.41  62 2.41  76 2.41  79 2.41  41 2.41  97 2.41  25 3.17  23 3.17
                             2 3.18  22 3.18   8 3.18  26 3.19
   6  0.334  0.778  0.250-  77 2.41  98 2.41  42 2.41  80 2.41  63 2.42  45 2.43   9 3.17  23 3.19
                            24 3.19   3 3.19  27 3.19  26 3.23
   7  0.500  0.112  0.251-  78 2.41  81 2.41  43 2.41  46 2.41  99 2.41  64 2.42  10 3.18   4 3.18
                            25 3.18  28 3.18  30 3.19  27 3.19
   8  0.500  0.448  0.243- 108 2.04  79 2.42  82 2.42  44 2.43  47 2.43 100 2.44  26 3.08  29 3.08
                            11 3.18   5 3.18  28 3.23  25 3.23
   9  0.500  0.778  0.248-  45 2.41  48 2.41 101 2.41  80 2.41  83 2.41  65 2.41  12 3.17   6 3.17
                            27 3.18  30 3.18  29 3.19  26 3.19
  10  0.667  0.112  0.252-  81 2.41  84 2.41  46 2.41 102 2.41  49 2.41  66 2.42  31 3.18   7 3.18
                            13 3.18  30 3.18  28 3.19  33 3.19
  11  0.667  0.445  0.248-  47 2.41  67 2.41  85 2.41  82 2.41  50 2.41 103 2.41  28 3.17  32 3.17
                            14 3.18  31 3.18   8 3.18  29 3.19
  12  0.666  0.778  0.250-  86 2.41 104 2.41  51 2.41  83 2.41  68 2.42  48 2.43   9 3.17  32 3.19
                            33 3.19  15 3.19  30 3.19  29 3.23
  13  0.833  0.111  0.253-  84 2.41  87 2.41 105 2.41  49 2.41  52 2.41  69 2.41  34 3.18  10 3.18
                            33 3.18  16 3.18  36 3.18  31 3.19
  14  0.833  0.444  0.251-  50 2.41  88 2.41  70 2.41  85 2.41 106 2.41  53 2.41  31 3.18  35 3.18
                            11 3.18  34 3.18  17 3.18  32 3.19
  15  0.833  0.777  0.252- 107 2.41  89 2.41  86 2.41  71 2.41  54 2.41  51 2.41  32 3.18  36 3.18
                            35 3.19  12 3.19  33 3.19  18 3.19
  16  0.000  0.111  0.253-  87 2.41  72 2.41  90 2.41  52 2.41  37 2.41  55 2.41  19 3.18  34 3.18
                            21 3.18  36 3.18   1 3.18  13 3.18
  17  0.000  0.444  0.252-  88 2.41  73 2.41  56 2.41  91 2.41  53 2.41  38 2.41  19 3.18  34 3.18
                            20 3.18  35 3.18   2 3.18  14 3.18
  18  0.000  0.777  0.252-  92 2.41  89 2.41  74 2.41  57 2.41  54 2.41  39 2.41  20 3.18  35 3.18
                            21 3.19  36 3.19   3 3.19  15 3.19
  19  0.083  0.277  0.252-  93 2.41  90 2.41  58 2.41  38 2.41  55 2.41  73 2.41   1 3.18  17 3.18
                            22 3.18  34 3.18  16 3.18   2 3.18
  20  0.084  0.611  0.252-  94 2.41  91 2.41  74 2.41  39 2.41  56 2.41  59 2.42   2 3.18  17 3.18
                            18 3.18   3 3.19  23 3.19  35 3.19
  21  0.083  0.944  0.253-  72 2.41  95 2.41  92 2.41  37 2.41  57 2.41  60 2.41  16 3.18   3 3.18
                             1 3.18  18 3.19  24 3.19  36 3.19
  22  0.250  0.278  0.251-  96 2.41  61 2.41  41 2.41  93 2.41  58 2.41  76 2.41   2 3.18   4 3.18
                            19 3.18   5 3.18  25 3.18   1 3.19
  23  0.250  0.611  0.249-  77 2.41  94 2.41  42 2.41  97 2.41  59 2.41  62 2.43   5 3.17   3 3.18
                             6 3.19   2 3.19  20 3.19  26 3.23
  24  0.250  0.944  0.252-  98 2.41  75 2.41  95 2.41  60 2.41  40 2.41  63 2.42  27 3.18   1 3.18
                             6 3.19   3 3.19  21 3.19   4 3.19
  25  0.417  0.279  0.250-  99 2.41  96 2.41  64 2.41  61 2.41  79 2.41  44 2.43   5 3.17  28 3.18
                             7 3.18  22 3.18   4 3.19   8 3.23
  26  0.419  0.610  0.243- 108 2.04  97 2.42  80 2.42  62 2.43  45 2.43 100 2.44   8 3.08  29 3.08
                             5 3.19   9 3.19   6 3.23  23 3.23
  27  0.417  0.945  0.251-  65 2.41  98 2.41  63 2.41 101 2.41  78 2.41  43 2.42  30 3.18  24 3.18
                             9 3.18   4 3.18   7 3.19   6 3.19
  28  0.583  0.279  0.250-  99 2.41 102 2.41  64 2.41  66 2.41  82 2.41  47 2.43  11 3.17  25 3.18
                             7 3.18  31 3.18  10 3.19   8 3.23
  29  0.581  0.610  0.243- 108 2.04 103 2.42  83 2.42  67 2.43  48 2.43 100 2.44   8 3.08  26 3.08
                            11 3.19   9 3.19  12 3.23  32 3.23
  30  0.583  0.945  0.251-  65 2.41 104 2.41  68 2.41 101 2.41  81 2.41  46 2.42  27 3.18  33 3.18
                             9 3.18  10 3.18   7 3.19  12 3.19
  31  0.750  0.278  0.251- 102 2.41  66 2.41  50 2.41 105 2.41  69 2.41  85 2.41  14 3.18  10 3.18
                            34 3.18  11 3.18  28 3.18  13 3.19
  32  0.750  0.611  0.249-  86 2.41 106 2.41  51 2.41 103 2.41  70 2.41  67 2.43  11 3.17  15 3.18
                            12 3.19  14 3.19  35 3.19  29 3.23
  33  0.750  0.944  0.252- 104 2.41  84 2.41 107 2.41  71 2.41  49 2.41  68 2.42  30 3.18  13 3.18
                            12 3.19  15 3.19  36 3.19  10 3.19
  34  0.917  0.277  0.252- 105 2.41  90 2.41  69 2.41  53 2.41  55 2.41  88 2.41  13 3.18  17 3.18
                            31 3.18  19 3.18  16 3.18  14 3.18
  35  0.916  0.611  0.252- 106 2.41  91 2.41  89 2.41  54 2.41  56 2.41  70 2.42  14 3.18  17 3.18
                            18 3.18  15 3.19  32 3.19  20 3.19
  36  0.917  0.944  0.253-  87 2.41 107 2.41  92 2.41  52 2.41  57 2.41  71 2.41  16 3.18  15 3.18
                            13 3.18  18 3.19  33 3.19  21 3.19
  37  0.084  0.055  0.383-   1 2.41  16 2.41  21 2.41
  38  0.084  0.389  0.382-  19 2.41  17 2.41   2 2.41
  39  0.084  0.722  0.382-  20 2.41   3 2.41  18 2.41
  40  0.250  0.056  0.382-   4 2.41   1 2.41  24 2.41
  41  0.251  0.390  0.380-   2 2.41  22 2.41   5 2.41
  42  0.251  0.721  0.380-   6 2.41  23 2.41   3 2.41
  43  0.417  0.056  0.382-   4 2.41   7 2.41  27 2.42
  44  0.418  0.392  0.378-   5 2.41   8 2.43  25 2.43
  45  0.418  0.719  0.378-   9 2.41   6 2.43  26 2.43
  46  0.583  0.056  0.382-  10 2.41   7 2.41  30 2.42
  47  0.582  0.392  0.378-  11 2.41   8 2.43  28 2.43
  48  0.582  0.719  0.378-   9 2.41  12 2.43  29 2.43
  49  0.750  0.056  0.382-  10 2.41  13 2.41  33 2.41
  50  0.749  0.390  0.380-  14 2.41  31 2.41  11 2.41
  51  0.749  0.721  0.380-  12 2.41  32 2.41  15 2.41
  52  0.916  0.055  0.383-  13 2.41  16 2.41  36 2.41
  53  0.916  0.389  0.382-  34 2.41  17 2.41  14 2.41
  54  0.916  0.722  0.382-  35 2.41  15 2.41  18 2.41
  55  0.000  0.222  0.383-  19 2.41  34 2.41  16 2.41
  56  0.000  0.555  0.382-  17 2.41  20 2.41  35 2.41
  57  0.000  0.888  0.383-  18 2.41  21 2.41  36 2.41
  58  0.167  0.222  0.382-  19 2.41  22 2.41   1 2.41
  59  0.168  0.555  0.381-   2 2.41  23 2.41  20 2.42
  60  0.167  0.888  0.382-  24 2.41   3 2.41  21 2.41
  61  0.334  0.224  0.381-  22 2.41  25 2.41   4 2.42
  62  0.336  0.556  0.377-   5 2.41  26 2.43  23 2.43
  63  0.334  0.888  0.381-  27 2.41  24 2.42   6 2.42
  64  0.500  0.224  0.380-  28 2.41  25 2.41   7 2.42
  65  0.500  0.888  0.381-  30 2.41  27 2.41   9 2.41
  66  0.666  0.224  0.381-  31 2.41  28 2.41  10 2.42
  67  0.664  0.556  0.377-  11 2.41  29 2.43  32 2.43
  68  0.666  0.888  0.381-  30 2.41  33 2.42  12 2.42
  69  0.833  0.222  0.382-  34 2.41  31 2.41  13 2.41
  70  0.832  0.555  0.381-  14 2.41  32 2.41  35 2.42
  71  0.833  0.888  0.382-  33 2.41  15 2.41  36 2.41
  72  0.083  0.055  0.123-  21 2.41  16 2.41   1 2.41
  73  0.083  0.388  0.121-  17 2.41   2 2.41  19 2.41
  74  0.083  0.722  0.122-   3 2.41  20 2.41  18 2.41
  75  0.250  0.056  0.122-   1 2.41   4 2.41  24 2.41
  76  0.249  0.388  0.120-   5 2.41   2 2.41  22 2.41
  77  0.250  0.722  0.120-  23 2.41   6 2.41   3 2.41
  78  0.417  0.056  0.121-   7 2.41   4 2.41  27 2.41
  79  0.416  0.388  0.117-   5 2.41  25 2.41   8 2.42
  80  0.417  0.724  0.117-   9 2.41   6 2.41  26 2.42
  81  0.583  0.056  0.121-   7 2.41  10 2.41  30 2.41
  82  0.584  0.388  0.117-  11 2.41  28 2.41   8 2.42
  83  0.583  0.724  0.117-   9 2.41  12 2.41  29 2.42
  84  0.750  0.056  0.122-  13 2.41  10 2.41  33 2.41
  85  0.751  0.388  0.120-  11 2.41  14 2.41  31 2.41
  86  0.750  0.722  0.120-  32 2.41  12 2.41  15 2.41
  87  0.917  0.055  0.123-  36 2.41  16 2.41  13 2.41
  88  0.917  0.388  0.121-  17 2.41  14 2.41  34 2.41
  89  0.917  0.722  0.122-  15 2.41  35 2.41  18 2.41
  90  0.000  0.222  0.122-  19 2.41  34 2.41  16 2.41
  91  0.000  0.555  0.122-  20 2.41  35 2.41  17 2.41
  92  0.000  0.889  0.123-  18 2.41  21 2.41  36 2.41
  93  0.166  0.222  0.122-  19 2.41  22 2.41   1 2.41
  94  0.166  0.555  0.121-  23 2.41  20 2.41   2 2.41
  95  0.167  0.889  0.122-   3 2.41  21 2.41  24 2.41
  96  0.333  0.222  0.121-  25 2.41  22 2.41   4 2.41
  97  0.332  0.555  0.117-   5 2.41  23 2.41  26 2.42
  98  0.333  0.890  0.121-   6 2.41  24 2.41  27 2.41
  99  0.500  0.222  0.120-  28 2.41  25 2.41   7 2.41
 100  0.500  0.556  0.104-  29 2.44  26 2.44   8 2.44
 101  0.500  0.890  0.120-   9 2.41  30 2.41  27 2.41
 102  0.667  0.222  0.121-  28 2.41  31 2.41  10 2.41
 103  0.668  0.555  0.117-  11 2.41  32 2.41  29 2.42
 104  0.667  0.890  0.121-  12 2.41  33 2.41  30 2.41
 105  0.834  0.222  0.122-  34 2.41  31 2.41  13 2.41
 106  0.834  0.555  0.121-  32 2.41  35 2.41  14 2.41
 107  0.833  0.889  0.122-  15 2.41  36 2.41  33 2.41
 108  0.500  0.556  0.327-  29 2.04  26 2.04   8 2.04
 

IMPORTANT INFORMATION: All symmetrisations will be switched off!
NOSYMM: (Re-)initialisation of all symmetry stuff for point group C_1.


----------------------------------------------------------------------------------------

                                     Primitive cell                                     

  volume of cell :    3789.8204

  direct lattice vectors                    reciprocal lattice vectors
    19.096485138  0.000000000  0.000000000     0.052365657 -0.000000007  0.000000000
     0.000002202 16.538036346  0.000000000     0.000000000  0.060466671  0.000000000
     0.000000000  0.000000000 12.000000000     0.000000000  0.000000000  0.083333333

  length of vectors
    19.096485138 16.538036346 12.000000000     0.052365657  0.060466671  0.083333333

  position of ions in fractional coordinates (direct lattice)
     0.166733642  0.110927687  0.252513922
     0.166747147  0.444166047  0.250905133
     0.166968788  0.777444588  0.251539252
     0.333413922  0.111587956  0.251851553
     0.333317966  0.444518826  0.248254207
     0.333805993  0.777625465  0.249591266
     0.499999911  0.111835681  0.251419531
     0.499999911  0.448224941  0.243434798
     0.499999911  0.778091442  0.248458844
     0.666585899  0.111587956  0.251851553
     0.666681855  0.444518826  0.248254207
     0.666193828  0.777625465  0.249591266
     0.833266194  0.110927687  0.252513922
     0.833252689  0.444166047  0.250905133
     0.833031048  0.777444588  0.251539252
     1.000000000  0.110734640  0.252805131
     1.000000000  0.444079351  0.251782452
     1.000000000  0.777328842  0.252228058
     0.083327217  0.277459297  0.252213879
     0.083523131  0.610686446  0.251512807
     0.083446638  0.944077475  0.252686945
     0.249970620  0.277891497  0.251181508
     0.250452013  0.610805522  0.249342177
     0.250306576  0.944345504  0.252027784
     0.416699910  0.278600446  0.249596981
     0.419357298  0.609500243  0.243367011
     0.416816516  0.944845946  0.251201316
     0.583299941  0.278600446  0.249596981
     0.580642553  0.609500243  0.243367011
     0.583183335  0.944845946  0.251201316
     0.750029245  0.277891497  0.251181508
     0.749547852  0.610805522  0.249342177
     0.749693289  0.944345504  0.252027784
     0.916672604  0.277459297  0.252213879
     0.916476690  0.610686446  0.251512807
     0.916553183  0.944077475  0.252686945
     0.083514676  0.055263959  0.382909664
     0.083639576  0.388928619  0.381881600
     0.083738580  0.721683745  0.381953171
     0.250450002  0.055575871  0.382352057
     0.250881098  0.389553316  0.380442476
     0.251162656  0.721413022  0.380321631
     0.416891238  0.055996155  0.381815937
     0.418312367  0.392209070  0.377655025
     0.418167528  0.719228041  0.377671631
     0.583108941  0.055996155  0.381815937
     0.581687812  0.392209070  0.377655025
     0.581832651  0.719228041  0.377671631
     0.749550147  0.055575871  0.382352057
     0.749119051  0.389553316  0.380442476
     0.748837493  0.721413022  0.380321631
     0.916485480  0.055263959  0.382909664
     0.916360580  0.388928619  0.381881600
     0.916261576  0.721683745  0.381953171
     1.000000000  0.222135454  0.382683566
     1.000000000  0.555311155  0.381793715
     1.000000000  0.888315005  0.382726199
     0.167029331  0.222425339  0.382243080
     0.167727096  0.555374684  0.380908365
     0.167185299  0.888327271  0.382309988
     0.333898887  0.223503006  0.381273570
     0.336437852  0.555799722  0.377480933
     0.334067233  0.888048489  0.381319461
     0.500000000  0.223965258  0.380474222
     0.500000000  0.888184455  0.380640321
     0.666101143  0.223503006  0.381273570
     0.663562178  0.555799722  0.377480933
     0.665932797  0.888048489  0.381319461
     0.832970654  0.222425339  0.382243080
     0.832272889  0.555374684  0.380908365
     0.832814686  0.888327271  0.382309988
     0.083315284  0.055212925  0.122597501
     0.083106397  0.388321759  0.121499160
     0.083318071  0.722059632  0.121718610
     0.249998933  0.055634271  0.122082816
     0.249355631  0.388353503  0.119717773
     0.249976159  0.722397747  0.120228982
     0.416638489  0.056246195  0.121442883
     0.415837438  0.388477694  0.117073887
     0.416692240  0.723702527  0.117144510
     0.583361690  0.056246195  0.121442883
     0.584162741  0.388477694  0.117073887
     0.583307939  0.723702527  0.117144510
     0.750001216  0.055634271  0.122082816
     0.750644518  0.388353503  0.119717773
     0.750023990  0.722397747  0.120228982
     0.916684872  0.055212925  0.122597501
     0.916893759  0.388321759  0.121499160
     0.916682085  0.722059632  0.121718610
     1.000000000  0.221656611  0.122278597
     1.000000000  0.555208630  0.121542636
     1.000000000  0.888691405  0.122502290
     0.166418757  0.221752542  0.121845350
     0.166377847  0.555213185  0.120520068
     0.166719903  0.888928356  0.122046716
     0.333036676  0.222200484  0.120818134
     0.332494503  0.555098054  0.116940504
     0.333416389  0.889572391  0.120917693
     0.500000000  0.222475254  0.120262093
     0.500000000  0.555753868  0.104036209
     0.500000000  0.890210399  0.119998812
     0.666963354  0.222200484  0.120818134
     0.667505527  0.555098054  0.116940504
     0.666583641  0.889572391  0.120917693
     0.833581228  0.221752542  0.121845350
     0.833622138  0.555213185  0.120520068
     0.833280082  0.888928356  0.122046716
     0.500000000  0.555826520  0.327094690

  ion indices of the primitive-cell ions
   primitive index   ion index
                 1           1
                 2           2
                 3           3
                 4           4
                 5           5
                 6           6
                 7           7
                 8           8
                 9           9
                10          10
                11          11
                12          12
                13          13
                14          14
                15          15
                16          16
                17          17
                18          18
                19          19
                20          20
                21          21
                22          22
                23          23
                24          24
                25          25
                26          26
                27          27
                28          28
                29          29
                30          30
                31          31
                32          32
                33          33
                34          34
                35          35
                36          36
                37          37
                38          38
                39          39
                40          40
                41          41
                42          42
                43          43
                44          44
                45          45
                46          46
                47          47
                48          48
                49          49
                50          50
                51          51
                52          52
                53          53
                54          54
                55          55
                56          56
                57          57
                58          58
                59          59
                60          60
                61          61
                62          62
                63          63
                64          64
                65          65
                66          66
                67          67
                68          68
                69          69
                70          70
                71          71
                72          72
                73          73
                74          74
                75          75
                76          76
                77          77
                78          78
                79          79
                80          80
                81          81
                82          82
                83          83
                84          84
                85          85
                86          86
                87          87
                88          88
                89          89
                90          90
                91          91
                92          92
                93          93
                94          94
                95          95
                96          96
                97          97
                98          98
                99          99
               100         100
               101         101
               102         102
               103         103
               104         104
               105         105
               106         106
               107         107
               108         108

----------------------------------------------------------------------------------------

 
 
 KPOINTS: pymatgen with grid density = 659 / numbe

Automatic generation of k-mesh.
 Grid dimensions read from file:
 generate k-points for:    1    1    1

 Generating k-lattice:

  Cartesian coordinates                     Fractional coordinates (reciprocal lattice)
     0.052365657 -0.000000007  0.000000000     1.000000000 -0.000000000  0.000000000
     0.000000000  0.060466671  0.000000000     0.000000000  1.000000000  0.000000000
     0.000000000  0.000000000  0.083333333     0.000000000  0.000000000  1.000000000

  Length of vectors
     0.052365657  0.060466671  0.083333333

  Shift w.r.t. Gamma in fractional coordinates (k-lattice)
     0.000000000  0.000000000  0.000000000

 
 Subroutine IBZKPT returns following result:
 ===========================================
 
 Found      1 irreducible k-points:
 
 Following reciprocal coordinates:
            Coordinates               Weight
  0.000000  0.000000  0.000000      1.000000
 
 Following cartesian coordinates:
            Coordinates               Weight
  0.000000  0.000000  0.000000      1.000000
 


--------------------------------------------------------------------------------------------------------




 Dimension of arrays:
   k-points           NKPTS =      1   k-points in BZ     NKDIM =      1   number of bands    NBANDS=    564
   number of dos      NEDOS =   1000   number of ions     NIONS =    108
   non local maximal  LDIM  =      6   non local SUM 2l+1 LMDIM =     18
   total plane-waves  NPLWV = ******
   max r-space proj   IRMAX =      1   max aug-charges    IRDMAX=  25011
   dimension x,y,z NGX =   160 NGY =  140 NGZ =   96
   dimension x,y,z NGXF=   320 NGYF=  280 NGZF=  192
   support grid    NGXF=   320 NGYF=  280 NGZF=  192
   ions per type =              36  71   1
   NGX,Y,Z   is equivalent  to a cutoff of  13.93, 14.07, 13.30 a.u.
   NGXF,Y,Z  is equivalent  to a cutoff of  27.86, 28.15, 26.60 a.u.

 SYSTEM =  mos2 with carbon radical ion c_s defect 
 POSCAR =  Mo1 S2                                  

 Startparameter for this run:
   NWRITE =      2    write-flag & timer
   PREC   = accura    normal or accurate (medium, high low for compatibility)
   ISTART =      0    job   : 0-new  1-cont  2-samecut
   ICHARG =      2    charge: 1-file 2-atom 10-const
   ISPIN  =      2    spin polarized calculation?
   LNONCOLLINEAR =      F non collinear calculations
   LSORBIT =      F    spin-orbit coupling
   INIWAV =      1    electr: 0-lowe 1-rand  2-diag
   LASPH  =      F    aspherical Exc in radial PAW
   METAGGA=      F    non-selfconsistent MetaGGA calc.

 Electronic Relaxation 1
   ENCUT  =  600.0 eV  44.10 Ry    6.64 a.u.  38.14 33.03 23.97*2*pi/ulx,y,z
   ENINI  =  600.0     initial cutoff
   ENAUG  =  644.9 eV  augmentation charge cutoff
   NELM   =    400;   NELMIN=  4; NELMDL= -5     # of ELM steps 
   EDIFF  = 0.1E-06   stopping-criterion for ELM
   LREAL  =      F    real-space projection
   NLSPLINE    = F    spline interpolate recip. space projectors
   LCOMPAT=      F    compatible to vasp.4.4
   GGA_COMPAT  = T    GGA compatible to vasp.4.4-vasp.4.6
   LMAXPAW     = -100 max onsite density
   LMAXMIX     =    2 max onsite mixed and CHGCAR
   VOSKOWN=      0    Vosko Wilk Nusair interpolation
   ROPT   =    0.00000   0.00000   0.00000
 Ionic relaxation
   EDIFFG = -.1E-01   stopping-criterion for IOM
   NSW    =      0    number of steps for IOM
   NBLOCK =      1;   KBLOCK =      1    inner block; outer block 
   IBRION =     -1    ionic relax: 0-MD 1-quasi-New 2-CG
   NFREE  =      0    steps in history (QN), initial steepest desc. (CG)
   ISIF   =      2    stress and relaxation
   IWAVPR =     10    prediction:  0-non 1-charg 2-wave 3-comb
   ISYM   =      0    0-nonsym 1-usesym 2-fastsym
   LCORR  =      T    Harris-Foulkes like correction to forces

   POTIM  = 0.5000    time-step for ionic-motion
   TEIN   =    0.0    initial temperature
   TEBEG  =    0.0;   TEEND  =   0.0 temperature during run
   SMASS  =  -3.00    Nose mass-parameter (am)
   estimated Nose-frequenzy (Omega)   =  0.10E-29 period in steps = 0.13E+47 mass=  -0.833E-26a.u.
   SCALEE = 1.0000    scale energy and forces
   NPACO  =    256;   APACO  = 16.0  distance and # of slots for P.C.
   PSTRESS=    0.0 pullay stress

  Mass of Ions in am
   POMASS =  95.94 32.07 12.01
  Ionic Valenz
   ZVAL   =  14.00  6.00  4.00
  Atomic Wigner-Seitz radii
   RWIGS  =  -1.00 -1.00 -1.00
  virtual crystal weights 
   VCA    =   1.00  1.00  1.00
   NELECT =     935.0000    total number of electrons
   NUPDOWN=       1.0000    fix difference up-down

 DOS related values:
   EMIN   =  10.00;   EMAX   =-10.00  energy-range for DOS
   EFERMI =   0.00
   ISMEAR =     0;   SIGMA  =   0.00  broadening in eV -4-tet -1-fermi 0-gaus

 Electronic relaxation 2 (details)
   IALGO  =     38    algorithm
   LDIAG  =      T    sub-space diagonalisation (order eigenvalues)
   LSUBROT=      F    optimize rotation matrix (better conditioning)
   TURBO    =      0    0=normal 1=particle mesh
   IRESTART =      0    0=no restart 2=restart with 2 vectors
   NREBOOT  =      0    no. of reboots
   NMIN     =      0    reboot dimension
   EREF     =   0.00    reference energy to select bands
   IMIX   =      4    mixing-type and parameters
     AMIX     =   0.40;   BMIX     =  1.00
     AMIX_MAG =   1.60;   BMIX_MAG =  1.00
     AMIN     =   0.10
     WC   =   100.;   INIMIX=   1;  MIXPRE=   1;  MAXMIX= -45

 Intra band minimization:
   WEIMIN = 0.0000     energy-eigenvalue tresh-hold
   EBREAK =  0.44E-10  absolut break condition
   DEPER  =   0.30     relativ break condition  

   TIME   =   0.40     timestep for ELM

  volume/ion in A,a.u.               =      35.09       236.81
  Fermi-wavevector in a.u.,A,eV,Ry     =   1.026768  1.940311 14.343987  1.054253
  Thomas-Fermi vector in A             =   2.160678
 
 Write flags
   LWAVE        =      T    write WAVECAR
   LDOWNSAMPLE  =      F    k-point downsampling of WAVECAR
   LCHARG       =      T    write CHGCAR
   LVTOT        =      F    write LOCPOT, total local potential
   LVHAR        =      F    write LOCPOT, Hartree potential only
   LELF         =      F    write electronic localiz. function (ELF)
   LORBIT       =      0    0 simple, 1 ext, 2 COOP (PROOUT), +10 PAW based schemes


 Dipole corrections
   LMONO  =      F    monopole corrections only (constant potential shift)
   LDIPOL =      F    correct potential (dipole corrections)
   IDIPOL =      0    1-x, 2-y, 3-z, 4-all directions 
   EPSILON=  1.0000000 bulk dielectric constant

 Exchange correlation treatment:
   GGA     =    --    GGA type
   LEXCH   =     8    internal setting for exchange type
   VOSKOWN=      0    Vosko Wilk Nusair interpolation
   LHFCALC =     F    Hartree Fock is set to
   LHFONE  =     F    Hartree Fock one center treatment
   AEXX    =    0.0000 exact exchange contribution

 Linear response parameters
   LEPSILON=     F    determine dielectric tensor
   LRPA    =     F    only Hartree local field effects (RPA)
   LNABLA  =     F    use nabla operator in PAW spheres
   LVEL    =     F    velocity operator in full k-point grid
   LINTERFAST=   F  fast interpolation
   KINTER  =     0    interpolate to denser k-point grid
   CSHIFT  =0.1000    complex shift for real part using Kramers Kronig
   OMEGAMAX=  -1.0    maximum frequency
   DEG_THRESHOLD= 0.2000000E-02 threshold for treating states as degnerate
   RTIME   =   -0.100 relaxation time in fs
  (WPLASMAI=    0.000 imaginary part of plasma frequency in eV, 0.658/RTIME)
   DFIELD  = 0.0000000 0.0000000 0.0000000 field for delta impulse in time
 
 Orbital magnetization related:
   ORBITALMAG=     F  switch on orbital magnetization
   LCHIMAG   =     F  perturbation theory with respect to B field
   DQ        =  0.001000  dq finite difference perturbation B field
   LLRAUG    =     F  two centre corrections for induced B field



--------------------------------------------------------------------------------------------------------


 Static calculation
 charge density and potential will be updated during run
 spin polarized calculation
 Variant of blocked Davidson
 Davidson routine will perform the subspace rotation
 perform sub-space diagonalisation
    after iterative eigenvector-optimisation
 modified Broyden-mixing scheme, WC =      100.0
 initial mixing is a Kerker type mixing with AMIX =  0.4000 and BMIX =      1.0000
 Hartree-type preconditioning will be used
 using additional bands           96
 reciprocal scheme for non local part
 use partial core corrections
 calculate Harris-corrections to forces 
   (improved forces if not selfconsistent)
 use gradient corrections 
 use of overlap-Matrix (Vanderbilt PP)
 Gauss-broadening in eV      SIGMA  =   0.00


--------------------------------------------------------------------------------------------------------


  energy-cutoff  :      600.00
  volume of cell :     3789.82
      direct lattice vectors                 reciprocal lattice vectors
    19.096485138  0.000000000  0.000000000     0.052365657 -0.000000007  0.000000000
     0.000002202 16.538036346  0.000000000     0.000000000  0.060466671  0.000000000
     0.000000000  0.000000000 12.000000000     0.000000000  0.000000000  0.083333333

  length of vectors
    19.096485138 16.538036346 12.000000000     0.052365657  0.060466671  0.083333333


 
 k-points in units of 2pi/SCALE and weight: pymatgen with grid density = 659 / numbe
   0.00000000  0.00000000  0.00000000       1.000
 
 k-points in reciprocal lattice and weights: pymatgen with grid density = 659 / numbe
   0.00000000  0.00000000  0.00000000       1.000
 
 position of ions in fractional coordinates (direct lattice) 
   0.16673364  0.11092769  0.25251392
   0.16674715  0.44416605  0.25090513
   0.16696879  0.77744459  0.25153925
   0.33341392  0.11158796  0.25185155
   0.33331797  0.44451883  0.24825421
   0.33380599  0.77762546  0.24959127
   0.49999991  0.11183568  0.25141953
   0.49999991  0.44822494  0.24343480
   0.49999991  0.77809144  0.24845884
   0.66658590  0.11158796  0.25185155
   0.66668185  0.44451883  0.24825421
   0.66619383  0.77762546  0.24959127
   0.83326619  0.11092769  0.25251392
   0.83325269  0.44416605  0.25090513
   0.83303105  0.77744459  0.25153925
   0.00000000  0.11073464  0.25280513
   0.00000000  0.44407935  0.25178245
   0.00000000  0.77732884  0.25222806
   0.08332722  0.27745930  0.25221388
   0.08352313  0.61068645  0.25151281
   0.08344664  0.94407747  0.25268694
   0.24997062  0.27789150  0.25118151
   0.25045201  0.61080552  0.24934218
   0.25030658  0.94434550  0.25202778
   0.41669991  0.27860045  0.24959698
   0.41935730  0.60950024  0.24336701
   0.41681652  0.94484595  0.25120132
   0.58329994  0.27860045  0.24959698
   0.58064255  0.60950024  0.24336701
   0.58318333  0.94484595  0.25120132
   0.75002924  0.27789150  0.25118151
   0.74954785  0.61080552  0.24934218
   0.74969329  0.94434550  0.25202778
   0.91667260  0.27745930  0.25221388
   0.91647669  0.61068645  0.25151281
   0.91655318  0.94407747  0.25268694
   0.08351468  0.05526396  0.38290966
   0.08363958  0.38892862  0.38188160
   0.08373858  0.72168374  0.38195317
   0.25045000  0.05557587  0.38235206
   0.25088110  0.38955332  0.38044248
   0.25116266  0.72141302  0.38032163
   0.41689124  0.05599616  0.38181594
   0.41831237  0.39220907  0.37765502
   0.41816753  0.71922804  0.37767163
   0.58310894  0.05599616  0.38181594
   0.58168781  0.39220907  0.37765502
   0.58183265  0.71922804  0.37767163
   0.74955015  0.05557587  0.38235206
   0.74911905  0.38955332  0.38044248
   0.74883749  0.72141302  0.38032163
   0.91648548  0.05526396  0.38290966
   0.91636058  0.38892862  0.38188160
   0.91626158  0.72168374  0.38195317
   0.00000000  0.22213545  0.38268357
   0.00000000  0.55531116  0.38179372
   0.00000000  0.88831501  0.38272620
   0.16702933  0.22242534  0.38224308
   0.16772710  0.55537468  0.38090836
   0.16718530  0.88832727  0.38230999
   0.33389889  0.22350301  0.38127357
   0.33643785  0.55579972  0.37748093
   0.33406723  0.88804849  0.38131946
   0.50000000  0.22396526  0.38047422
   0.50000000  0.88818446  0.38064032
   0.66610114  0.22350301  0.38127357
   0.66356218  0.55579972  0.37748093
   0.66593280  0.88804849  0.38131946
   0.83297065  0.22242534  0.38224308
   0.83227289  0.55537468  0.38090836
   0.83281469  0.88832727  0.38230999
   0.08331528  0.05521292  0.12259750
   0.08310640  0.38832176  0.12149916
   0.08331807  0.72205963  0.12171861
   0.24999893  0.05563427  0.12208282
   0.24935563  0.38835350  0.11971777
   0.24997616  0.72239775  0.12022898
   0.41663849  0.05624619  0.12144288
   0.41583744  0.38847769  0.11707389
   0.41669224  0.72370253  0.11714451
   0.58336169  0.05624619  0.12144288
   0.58416274  0.38847769  0.11707389
   0.58330794  0.72370253  0.11714451
   0.75000122  0.05563427  0.12208282
   0.75064452  0.38835350  0.11971777
   0.75002399  0.72239775  0.12022898
   0.91668487  0.05521292  0.12259750
   0.91689376  0.38832176  0.12149916
   0.91668208  0.72205963  0.12171861
   0.00000000  0.22165661  0.12227860
   0.00000000  0.55520863  0.12154264
   0.00000000  0.88869141  0.12250229
   0.16641876  0.22175254  0.12184535
   0.16637785  0.55521318  0.12052007
   0.16671990  0.88892836  0.12204672
   0.33303668  0.22220048  0.12081813
   0.33249450  0.55509805  0.11694050
   0.33341639  0.88957239  0.12091769
   0.50000000  0.22247525  0.12026209
   0.50000000  0.55575387  0.10403621
   0.50000000  0.89021040  0.11999881
   0.66696335  0.22220048  0.12081813
   0.66750553  0.55509805  0.11694050
   0.66658364  0.88957239  0.12091769
   0.83358123  0.22175254  0.12184535
   0.83362214  0.55521318  0.12052007
   0.83328008  0.88892836  0.12204672
   0.50000000  0.55582652  0.32709469
 
 position of ions in cartesian coordinates  (Angst):
   3.18402676  1.83452612  3.03016707
   3.18428540  7.34563423  3.01086159
   3.18851869 12.85740685  3.01847103
   6.36703425  1.84544567  3.02221864
   6.36520257  7.35146851  2.97905049
   6.37452290 12.86039820  2.99509519
   9.54824112  1.84954255  3.01703438
   9.54824186  7.41276036  2.92121757
   9.54824258 12.86810455  2.98150613
  12.72944796  1.84544567  3.02221864
  12.73128111  7.35146851  2.97905049
  12.72196224 12.86039820  2.99509519
  15.91245574  1.83452612  3.03016707
  15.91219857  7.34563423  3.01086159
  15.90796674 12.85740685  3.01847103
   0.00000024  1.83133350  3.03366157
   0.00000098  7.34420045  3.02138943
   0.00000171 12.85549264  3.02673669
   1.59125757  4.58863195  3.02656655
   1.59499957 10.09955464  3.01815369
   1.59353957 15.61318759  3.03224334
   4.77356085  4.59577967  3.01417810
   4.78275448 10.10152393  2.99210612
   4.77997788 15.61762027  3.02433341
   7.95750426  4.60750430  2.99516377
   8.00825176 10.07993717  2.92040414
   7.95973249 15.62589659  3.01441579
  11.13897926  4.60750430  2.99516377
  11.08823322 10.07993717  2.92040414
  11.13675397 15.62589659  3.01441579
  14.32292294  4.59577967  3.01417810
  14.31373077 10.10152393  2.99210612
  14.31650884 15.61762027  3.02433341
  17.50522537  4.58863195  3.02656655
  17.50148484 10.09955464  3.01815369
  17.50294631 15.61318759  3.03224334
   1.59483689  0.91395737  4.59491597
   1.59722279  6.43211564  4.58257921
   1.59911413 11.93523200  4.58343805
   4.78271486  0.91911578  4.58822469
   4.79094801  6.44244691  4.56530971
   4.79632552 11.93075477  4.56385958
   7.96115745  0.92606645  4.58179125
   7.98829676  6.48636786  4.53186030
   7.98553156 11.89461949  4.53205957
  11.13533135  0.92606645  4.58179125
  11.10819353  6.48636786  4.53186030
  11.11096016 11.89461949  4.53205957
  14.31377337  0.91911578  4.58822469
  14.30554169  6.44244691  4.56530971
  14.30016564 11.93075477  4.56385958
  17.50165147  0.91395737  4.59491597
  17.49926704  6.43211564  4.58257921
  17.49737716 11.93523200  4.58343805
   0.00000049  3.67368422  4.59220280
   0.00000122  9.18375607  4.58152458
   0.00000196 14.69098584  4.59271438
   3.18967363  3.67847834  4.58691696
   3.20299923  9.18480671  4.57090038
   3.19265353 14.69118869  4.58771986
   6.37629563  3.69630084  4.57528284
   6.42478166  9.19183600  4.52977119
   6.37951191 14.68657818  4.57583353
   9.54824306  3.70394557  4.56569066
   9.54824452 14.68882680  4.56768385
  12.72019106  3.69630084  4.57528284
  12.67170649  9.19183600  4.52977119
  12.71697771 14.68657818  4.57583353
  15.90681221  3.67847834  4.58691696
  15.89348807  9.18480671  4.57090038
  15.90383523 14.69118869  4.58771986
   1.59102921  0.91311336  1.47117001
   1.58704092  6.42207937  1.45798992
   1.59108390 11.94144844  1.46062332
   4.77410104  0.92008160  1.46499379
   4.76181696  6.42260434  1.43661328
   4.77366759 11.94704019  1.44274778
   7.95633083  0.93020161  1.45731460
   7.94103430  6.42465822  1.40488665
   7.95735877 11.96861869  1.40573412
  11.14015797  0.93020161  1.45731460
  11.15545596  6.42465822  1.40488665
  11.13913298 11.96861869  1.40573412
  14.32238719  0.92008160  1.46499379
  14.33467274  6.42260434  1.43661328
  14.32282358 11.94704019  1.44274778
  17.50545915  0.91311336  1.47117001
  17.50944890  6.42207937  1.45798992
  17.50540740 11.94144844  1.46062332
   0.00000049  3.66576509  1.46734317
   0.00000122  9.18206050  1.45851164
   0.00000196 14.69721076  1.47002748
   3.17801381  3.66735160  1.46214421
   3.17723331  9.18213583  1.44624082
   3.18376611 14.70112947  1.46456059
   6.35983043  3.67475968  1.44981761
   6.34947755  9.18023180  1.40328605
   6.36708308 14.71178053  1.45101232
   9.54824306  3.67930383  1.44314511
   9.54824379  9.19107767  1.24843450
   9.54824453 14.72233194  1.43998575
  12.73665626  3.67475968  1.44981761
  12.74701061  9.18023180  1.40328605
  12.72940655 14.71178053  1.45101232
  15.91847201  3.66735160  1.46214421
  15.91925398  9.18213583  1.44624082
  15.91272265 14.70112947  1.46456059
   9.54824379  9.19227918  3.92513628
 


--------------------------------------------------------------------------------------------------------


 k-point   1 :   0.0000 0.0000 0.0000  plane waves:  126369

 maximum and minimum number of plane-waves per node :     10533    10526

 maximum number of plane-waves:    126369
 maximum index in each direction: 
   IXMAX=   38   IYMAX=   33   IZMAX=   23
   IXMIN=  -38   IYMIN=  -33   IZMIN=  -23


 parallel 3D FFT for wavefunctions:
    minimum data exchange during FFTs selected (reduces bandwidth)
 parallel 3D FFT for charge:
    minimum data exchange during FFTs selected (reduces bandwidth)


 total amount of memory used by VASP MPI-rank0   167730. kBytes
=======================================================================

   base      :      30000. kBytes
   nonl-proj :      22749. kBytes
   fftplans  :      18200. kBytes
   grid      :      48513. kBytes
   one-center:        279. kBytes
   wavefun   :      47989. kBytes
 
     INWAV:  cpu time    0.0000: real time    0.0001
 Broyden mixing: mesh for mixing (old mesh)
   NGX = 77   NGY = 67   NGZ = 47
  (NGX  =320   NGY  =280   NGZ  =192)
  gives a total of 242473 points

 initial charge density was supplied:
 charge density of overlapping atoms calculated
 number of electron     934.0000000 magnetization       1.0000000
 keeping initial charge density in first step


--------------------------------------------------------------------------------------------------------


 Maximum index for augmentation-charges         1002 (set IRDMAX)


--------------------------------------------------------------------------------------------------------


 First call to EWALD:  gamma=   0.114
 Maximum number of real-space cells 2x 3x 3
 Maximum number of reciprocal cells 3x 3x 2

    FEWALD:  cpu time    0.0169: real time    0.0169


--------------------------------------- Iteration      1(   1)  ---------------------------------------


    POTLOK:  cpu time    0.6000: real time    0.6089
    SETDIJ:  cpu time    2.3586: real time    2.3650
     EDDAV:  cpu time   39.0350: real time   39.1675
       DOS:  cpu time    0.0035: real time    0.0035
    --------------------------------------------
      LOOP:  cpu time   41.9971: real time   42.1449

 eigenvalue-minimisations  :  2736
 total energy-change (2. order) : 0.8933202E+04  (-0.5259433E+05)
 number of electron     934.0000000 magnetization       1.0000000
 augmentation part      934.0000000 magnetization       1.0000000

 Free energy of the ion-electron system (eV)
  ---------------------------------------------------
  alpha Z        PSCENC =      1613.14260410
  Ewald energy   TEWEN  =     41227.01960328
  -Hartree energ DENC   =   -120102.09012794
  -exchange      EXHF   =         0.00000000
  -V(xc)+E(xc)   XCENC  =      3288.76803367
  PAW double counting   =     69471.44199347   -68580.06476881
  entropy T*S    EENTRO =         0.00000000
  eigenvalues    EBANDS =     -4828.70815088
  atomic energy  EATOM  =     86843.69247638
  Solvation  Ediel_sol  =         0.00000000
  ---------------------------------------------------
  free energy    TOTEN  =      8933.20166328 eV

  energy without entropy =     8933.20166328  energy(sigma->0) =     8933.20166328


--------------------------------------------------------------------------------------------------------




--------------------------------------- Iteration      1(   2)  ---------------------------------------


     EDDAV:  cpu time   39.1537: real time   39.2699
       DOS:  cpu time    0.0077: real time    0.0077
    --------------------------------------------
      LOOP:  cpu time   39.1614: real time   39.2776

 eigenvalue-minimisations  :  2712
 total energy-change (2. order) :-0.8993081E+04  (-0.8751697E+04)
 number of electron     934.0000000 magnetization       1.0000000
 augmentation part      934.0000000 magnetization       1.0000000

 Free energy of the ion-electron system (eV)
  ---------------------------------------------------
  alpha Z        PSCENC =      1613.14260410
  Ewald energy   TEWEN  =     41227.01960328
  -Hartree energ DENC   =   -120102.09012794
  -exchange      EXHF   =         0.00000000
  -V(xc)+E(xc)   XCENC  =      3288.76803367
  PAW double counting   =     69471.44199347   -68580.06476881
  entropy T*S    EENTRO =         0.00000000
  eigenvalues    EBANDS =    -13821.78898916
  atomic energy  EATOM  =     86843.69247638
  Solvation  Ediel_sol  =         0.00000000
  ---------------------------------------------------
  free energy    TOTEN  =       -59.87917500 eV

  energy without entropy =      -59.87917500  energy(sigma->0) =      -59.87917500


--------------------------------------------------------------------------------------------------------




--------------------------------------- Iteration      1(   3)  ---------------------------------------


     EDDAV:  cpu time   38.0728: real time   38.1865
       DOS:  cpu time    0.0053: real time    0.0053
    --------------------------------------------
      LOOP:  cpu time   38.0780: real time   38.1918

 eigenvalue-minimisations  :  2624
 total energy-change (2. order) :-0.7484275E+03  (-0.7345757E+03)
 number of electron     934.0000000 magnetization       1.0000000
 augmentation part      934.0000000 magnetization       1.0000000

 Free energy of the ion-electron system (eV)
  ---------------------------------------------------
  alpha Z        PSCENC =      1613.14260410
  Ewald energy   TEWEN  =     41227.01960328
  -Hartree energ DENC   =   -120102.09012794
  -exchange      EXHF   =         0.00000000
  -V(xc)+E(xc)   XCENC  =      3288.76803367
  PAW double counting   =     69471.44199347   -68580.06476881
  entropy T*S    EENTRO =         0.00000000
  eigenvalues    EBANDS =    -14570.21644182
  atomic energy  EATOM  =     86843.69247638
  Solvation  Ediel_sol  =         0.00000000
  ---------------------------------------------------
  free energy    TOTEN  =      -808.30662766 eV

  energy without entropy =     -808.30662766  energy(sigma->0) =     -808.30662766


--------------------------------------------------------------------------------------------------------




--------------------------------------- Iteration      1(   4)  ---------------------------------------


     EDDAV:  cpu time   41.8710: real time   41.9927
       DOS:  cpu time    0.0010: real time    0.0010
    --------------------------------------------
      LOOP:  cpu time   41.8721: real time   41.9937

 eigenvalue-minimisations  :  2960
 total energy-change (2. order) :-0.3501302E+02  (-0.3475223E+02)
 number of electron     934.0000000 magnetization       1.0000000
 augmentation part      934.0000000 magnetization       1.0000000

 Free energy of the ion-electron system (eV)
  ---------------------------------------------------
  alpha Z        PSCENC =      1613.14260410
  Ewald energy   TEWEN  =     41227.01960328
  -Hartree energ DENC   =   -120102.09012794
  -exchange      EXHF   =         0.00000000
  -V(xc)+E(xc)   XCENC  =      3288.76803367
  PAW double counting   =     69471.44199347   -68580.06476881
  entropy T*S    EENTRO =         0.00000000
  eigenvalues    EBANDS =    -14605.22946071
  atomic energy  EATOM  =     86843.69247638
  Solvation  Ediel_sol  =         0.00000000
  ---------------------------------------------------
  free energy    TOTEN  =      -843.31964655 eV

  energy without entropy =     -843.31964655  energy(sigma->0) =     -843.31964655


--------------------------------------------------------------------------------------------------------




--------------------------------------- Iteration      1(   5)  ---------------------------------------


     EDDAV:  cpu time   42.7072: real time   42.8323
       DOS:  cpu time    0.0009: real time    0.0009
    CHARGE:  cpu time    1.4000: real time    1.4038
    MIXING:  cpu time    0.0148: real time    0.0225
    --------------------------------------------
      LOOP:  cpu time   44.1230: real time   44.2596

 eigenvalue-minimisations  :  3032
 total energy-change (2. order) :-0.1253829E+01  (-0.1247298E+01)
 number of electron     934.9999990 magnetization       1.0000000
 augmentation part       13.9508114 magnetization       0.1261513

 Broyden mixing:
  rms(total) = 0.14237E+02    rms(broyden)= 0.14237E+02
  rms(prec ) = 0.14456E+02
  weight for this iteration     100.00

 Free energy of the ion-electron system (eV)
  ---------------------------------------------------
  alpha Z        PSCENC =      1613.14260410
  Ewald energy   TEWEN  =     41227.01960328
  -Hartree energ DENC   =   -120102.09012794
  -exchange      EXHF   =         0.00000000
  -V(xc)+E(xc)   XCENC  =      3288.76803367
  PAW double counting   =     69471.44199347   -68580.06476881
  entropy T*S    EENTRO =        -0.00000000
  eigenvalues    EBANDS =    -14606.48328922
  atomic energy  EATOM  =     86843.69247638
  Solvation  Ediel_sol  =         0.00000000
  ---------------------------------------------------
  free energy    TOTEN  =      -844.57347506 eV

  energy without entropy =     -844.57347506  energy(sigma->0) =     -844.57347506


--------------------------------------------------------------------------------------------------------




--------------------------------------- Iteration      1(   6)  ---------------------------------------


    POTLOK:  cpu time    0.5985: real time    0.6075
    SETDIJ:  cpu time    2.5240: real time    2.5305
     EDDAV:  cpu time   38.4043: real time   38.5094
       DOS:  cpu time    0.0015: real time    0.0015
    CHARGE:  cpu time    1.3933: real time    1.3970
    MIXING:  cpu time    0.0149: real time    0.0239
    --------------------------------------------
      LOOP:  cpu time   42.9365: real time   43.0697

 eigenvalue-minimisations  :  2640
 total energy-change (2. order) : 0.4233109E+02  (-0.4139870E+02)
 number of electron     934.9999990 magnetization       1.0000000
 augmentation part       36.4891946 magnetization       0.2548572

 Broyden mixing:
  rms(total) = 0.56926E+01    rms(broyden)= 0.56926E+01
  rms(prec ) = 0.59436E+01
  weight for this iteration     100.00

 eigenvalues of (default mixing * dielectric matrix)
  average eigenvalue GAMMA=   1.0809
  1.0809

 Free energy of the ion-electron system (eV)
  ---------------------------------------------------
  alpha Z        PSCENC =      1613.14260410
  Ewald energy   TEWEN  =     41227.01960328
  -Hartree energ DENC   =   -119073.04214961
  -exchange      EXHF   =         0.00000000
  -V(xc)+E(xc)   XCENC  =      3263.30763860
  PAW double counting   =     81979.39124561   -81211.13235072
  entropy T*S    EENTRO =        -0.00016183
  eigenvalues    EBANDS =    -15444.62129448
  atomic energy  EATOM  =     86843.69247638
  Solvation  Ediel_sol  =         0.00000000
  ---------------------------------------------------
  free energy    TOTEN  =      -802.24238866 eV

  energy without entropy =     -802.24222683  energy(sigma->0) =     -802.24230774


--------------------------------------------------------------------------------------------------------




--------------------------------------- Iteration      1(   7)  ---------------------------------------


    POTLOK:  cpu time    0.6004: real time    0.6100
    SETDIJ:  cpu time    2.4689: real time    2.4752
     EDDAV:  cpu time   36.6296: real time   36.7293
       DOS:  cpu time    0.0007: real time    0.0007
    CHARGE:  cpu time    1.3905: real time    1.3942
    MIXING:  cpu time    0.0150: real time    0.0229
    --------------------------------------------
      LOOP:  cpu time   41.1050: real time   41.2323

 eigenvalue-minimisations  :  2492
 total energy-change (2. order) : 0.8508097E+01  (-0.1718452E+02)
 number of electron     934.9999990 magnetization       1.0000000
 augmentation part       24.4291212 magnetization       0.1587352

 Broyden mixing:
  rms(total) = 0.34258E+01    rms(broyden)= 0.34258E+01
  rms(prec ) = 0.35816E+01
  weight for this iteration     100.00

 eigenvalues of (default mixing * dielectric matrix)
  average eigenvalue GAMMA=   1.1868
  1.7361  0.6374

 Free energy of the ion-electron system (eV)
  ---------------------------------------------------
  alpha Z        PSCENC =      1613.14260410
  Ewald energy   TEWEN  =     41227.01960328
  -Hartree energ DENC   =   -119911.43863957
  -exchange      EXHF   =         0.00000000
  -V(xc)+E(xc)   XCENC  =      3274.42751475
  PAW double counting   =     93229.96850224   -92431.21089315
  entropy T*S    EENTRO =         0.00000000
  eigenvalues    EBANDS =    -14639.33545963
  atomic energy  EATOM  =     86843.69247638
  Solvation  Ediel_sol  =         0.00000000
  ---------------------------------------------------
  free energy    TOTEN  =      -793.73429159 eV

  energy without entropy =     -793.73429159  energy(sigma->0) =     -793.73429159


--------------------------------------------------------------------------------------------------------




--------------------------------------- Iteration      1(   8)  ---------------------------------------


    POTLOK:  cpu time    0.5996: real time    0.6093
    SETDIJ:  cpu time    2.5305: real time    2.5370
     EDDAV:  cpu time   39.2277: real time   39.3351
       DOS:  cpu time    0.0009: real time    0.0009
    CHARGE:  cpu time    1.3934: real time    1.3971
    MIXING:  cpu time    0.0150: real time    0.0231
    --------------------------------------------
      LOOP:  cpu time   43.7670: real time   43.9024

 eigenvalue-minimisations  :  2728
 total energy-change (2. order) : 0.6760763E+01  (-0.2870062E+01)
 number of electron     934.9999991 magnetization       1.0000000
 augmentation part       28.2643455 magnetization       0.1117471

 Broyden mixing:
  rms(total) = 0.12707E+01    rms(broyden)= 0.12707E+01
  rms(prec ) = 0.13172E+01
  weight for this iteration     100.00

 eigenvalues of (default mixing * dielectric matrix)
  average eigenvalue GAMMA=   1.1574
  2.1213  0.7540  0.5970

 Free energy of the ion-electron system (eV)
  ---------------------------------------------------
  alpha Z        PSCENC =      1613.14260410
  Ewald energy   TEWEN  =     41227.01960328
  -Hartree energ DENC   =   -119655.51420370
  -exchange      EXHF   =         0.00000000
  -V(xc)+E(xc)   XCENC  =      3268.36467349
  PAW double counting   =    101756.97512895  -100996.50379236
  entropy T*S    EENTRO =         0.00000000
  eigenvalues    EBANDS =    -14844.15001906
  atomic energy  EATOM  =     86843.69247638
  Solvation  Ediel_sol  =         0.00000000
  ---------------------------------------------------
  free energy    TOTEN  =      -786.97352892 eV

  energy without entropy =     -786.97352892  energy(sigma->0) =     -786.97352892


--------------------------------------------------------------------------------------------------------




--------------------------------------- Iteration      1(   9)  ---------------------------------------


    POTLOK:  cpu time    0.5987: real time    0.6088
    SETDIJ:  cpu time    2.4090: real time    2.4151
     EDDAV:  cpu time   41.7196: real time   41.8334
       DOS:  cpu time    0.0010: real time    0.0010
    CHARGE:  cpu time    1.4011: real time    1.4048
    MIXING:  cpu time    0.0150: real time    0.0231
    --------------------------------------------
      LOOP:  cpu time   46.1444: real time   46.2862

 eigenvalue-minimisations  :  2944
 total energy-change (2. order) : 0.3365344E+00  (-0.7098454E+00)
 number of electron     934.9999990 magnetization       1.0000000
 augmentation part       29.8099653 magnetization       0.0862311

 Broyden mixing:
  rms(total) = 0.54028E+00    rms(broyden)= 0.54028E+00
  rms(prec ) = 0.58559E+00
  weight for this iteration     100.00

 eigenvalues of (default mixing * dielectric matrix)
  average eigenvalue GAMMA=   1.0614
  2.1803  0.9448  0.5603  0.5603

 Free energy of the ion-electron system (eV)
  ---------------------------------------------------
  alpha Z        PSCENC =      1613.14260410
  Ewald energy   TEWEN  =     41227.01960328
  -Hartree energ DENC   =   -119652.81343829
  -exchange      EXHF   =         0.00000000
  -V(xc)+E(xc)   XCENC  =      3268.03595765
  PAW double counting   =    104793.75778067  -104042.78220813
  entropy T*S    EENTRO =        -0.00000000
  eigenvalues    EBANDS =    -14836.68977018
  atomic energy  EATOM  =     86843.69247638
  Solvation  Ediel_sol  =         0.00000000
  ---------------------------------------------------
  free energy    TOTEN  =      -786.63699452 eV

  energy without entropy =     -786.63699452  energy(sigma->0) =     -786.63699452


--------------------------------------------------------------------------------------------------------




--------------------------------------- Iteration      1(  10)  ---------------------------------------


    POTLOK:  cpu time    0.5989: real time    0.6079
    SETDIJ:  cpu time    2.4107: real time    2.4170
     EDDAV:  cpu time   40.6362: real time   40.7471
       DOS:  cpu time    0.0012: real time    0.0012
    CHARGE:  cpu time    1.3893: real time    1.3931
    MIXING:  cpu time    0.0153: real time    0.0234
    --------------------------------------------
      LOOP:  cpu time   45.0515: real time   45.1897

 eigenvalue-minimisations  :  2824
 total energy-change (2. order) : 0.1533412E+00  (-0.1013229E+00)
 number of electron     934.9999991 magnetization       1.0000000
 augmentation part       29.6096690 magnetization       0.0772826

 Broyden mixing:
  rms(total) = 0.35492E+00    rms(broyden)= 0.35492E+00
  rms(prec ) = 0.38806E+00
  weight for this iteration     100.00

 eigenvalues of (default mixing * dielectric matrix)
  average eigenvalue GAMMA=   1.0559
  2.1464  1.2623  0.6972  0.6972  0.4763

 Free energy of the ion-electron system (eV)
  ---------------------------------------------------
  alpha Z        PSCENC =      1613.14260410
  Ewald energy   TEWEN  =     41227.01960328
  -Hartree energ DENC   =   -119705.11439461
  -exchange      EXHF   =         0.00000000
  -V(xc)+E(xc)   XCENC  =      3269.05025755
  PAW double counting   =    105258.12110466  -104506.57464524
  entropy T*S    EENTRO =        -0.00000000
  eigenvalues    EBANDS =    -14785.82065949
  atomic energy  EATOM  =     86843.69247638
  Solvation  Ediel_sol  =         0.00000000
  ---------------------------------------------------
  free energy    TOTEN  =      -786.48365336 eV

  energy without entropy =     -786.48365336  energy(sigma->0) =     -786.48365336


--------------------------------------------------------------------------------------------------------




--------------------------------------- Iteration      1(  11)  ---------------------------------------


    POTLOK:  cpu time    0.5994: real time    0.6088
    SETDIJ:  cpu time    2.4076: real time    2.4139
     EDDAV:  cpu time   41.1568: real time   41.2684
       DOS:  cpu time    0.0030: real time    0.0030
    CHARGE:  cpu time    1.3985: real time    1.4023
    MIXING:  cpu time    0.0174: real time    0.0253
    --------------------------------------------
      LOOP:  cpu time   45.5826: real time   45.7217

 eigenvalue-minimisations  :  2912
 total energy-change (2. order) : 0.1034745E+00  (-0.3681666E-01)
 number of electron     934.9999990 magnetization       1.0000000
 augmentation part       29.2075196 magnetization       0.0754544

 Broyden mixing:
  rms(total) = 0.15343E+00    rms(broyden)= 0.15343E+00
  rms(prec ) = 0.17692E+00
  weight for this iteration     100.00

 eigenvalues of (default mixing * dielectric matrix)
  average eigenvalue GAMMA=   1.1291
  2.0720  2.0281  0.9586  0.6381  0.6381  0.4396

 Free energy of the ion-electron system (eV)
  ---------------------------------------------------
  alpha Z        PSCENC =      1613.14260410
  Ewald energy   TEWEN  =     41227.01960328
  -Hartree energ DENC   =   -119763.71382026
  -exchange      EXHF   =         0.00000000
  -V(xc)+E(xc)   XCENC  =      3270.15920313
  PAW double counting   =    105209.68026583  -104456.28309783
  entropy T*S    EENTRO =        -0.00000000
  eigenvalues    EBANDS =    -14730.07741352
  atomic energy  EATOM  =     86843.69247638
  Solvation  Ediel_sol  =         0.00000000
  ---------------------------------------------------
  free energy    TOTEN  =      -786.38017888 eV

  energy without entropy =     -786.38017888  energy(sigma->0) =     -786.38017888


--------------------------------------------------------------------------------------------------------




--------------------------------------- Iteration      1(  12)  ---------------------------------------


    POTLOK:  cpu time    0.5988: real time    0.6081
    SETDIJ:  cpu time    2.3789: real time    2.3852
     EDDAV:  cpu time   41.2118: real time   41.3242
       DOS:  cpu time    0.0022: real time    0.0022
    CHARGE:  cpu time    1.3950: real time    1.3987
    MIXING:  cpu time    0.0160: real time    0.0241
    --------------------------------------------
      LOOP:  cpu time   45.6025: real time   45.7425

 eigenvalue-minimisations  :  2904
 total energy-change (2. order) : 0.3506829E-01  (-0.1400362E-01)
 number of electron     934.9999990 magnetization       1.0000000
 augmentation part       29.0917896 magnetization       0.0756536

 Broyden mixing:
  rms(total) = 0.82041E-01    rms(broyden)= 0.82040E-01
  rms(prec ) = 0.10487E+00
  weight for this iteration     100.00

 eigenvalues of (default mixing * dielectric matrix)
  average eigenvalue GAMMA=   1.1395
  2.4528  2.0762  1.1565  0.6651  0.6651  0.5283  0.4327

 Free energy of the ion-electron system (eV)
  ---------------------------------------------------
  alpha Z        PSCENC =      1613.14260410
  Ewald energy   TEWEN  =     41227.01960328
  -Hartree energ DENC   =   -119812.38298745
  -exchange      EXHF   =         0.00000000
  -V(xc)+E(xc)   XCENC  =      3270.91408099
  PAW double counting   =    105213.86295263  -104460.10055935
  entropy T*S    EENTRO =        -0.00000000
  eigenvalues    EBANDS =    -14682.49328118
  atomic energy  EATOM  =     86843.69247638
  Solvation  Ediel_sol  =         0.00000000
  ---------------------------------------------------
  free energy    TOTEN  =      -786.34511059 eV

  energy without entropy =     -786.34511059  energy(sigma->0) =     -786.34511059


--------------------------------------------------------------------------------------------------------




--------------------------------------- Iteration      1(  13)  ---------------------------------------


    POTLOK:  cpu time    0.6006: real time    0.6108
    SETDIJ:  cpu time    2.3780: real time    2.3841
     EDDAV:  cpu time   39.9862: real time   40.0942
       DOS:  cpu time    0.0033: real time    0.0033
    CHARGE:  cpu time    1.3891: real time    1.3930
    MIXING:  cpu time    0.0166: real time    0.0246
    --------------------------------------------
      LOOP:  cpu time   44.3739: real time   44.5100

 eigenvalue-minimisations  :  2792
 total energy-change (2. order) : 0.1844825E-01  (-0.3809162E-02)
 number of electron     934.9999990 magnetization       1.0000000
 augmentation part       29.1433828 magnetization       0.0760920

 Broyden mixing:
  rms(total) = 0.38753E-01    rms(broyden)= 0.38753E-01
  rms(prec ) = 0.59066E-01
  weight for this iteration     100.00

 eigenvalues of (default mixing * dielectric matrix)
  average eigenvalue GAMMA=   1.1004
  2.3184  2.2328  1.2764  0.6924  0.6924  0.6685  0.4424  0.4798

 Free energy of the ion-electron system (eV)
  ---------------------------------------------------
  alpha Z        PSCENC =      1613.14260410
  Ewald energy   TEWEN  =     41227.01960328
  -Hartree energ DENC   =   -119838.83961998
  -exchange      EXHF   =         0.00000000
  -V(xc)+E(xc)   XCENC  =      3271.17745052
  PAW double counting   =    105212.44756654  -104458.98078932
  entropy T*S    EENTRO =         0.00000000
  eigenvalues    EBANDS =    -14655.98595387
  atomic energy  EATOM  =     86843.69247638
  Solvation  Ediel_sol  =         0.00000000
  ---------------------------------------------------
  free energy    TOTEN  =      -786.32666234 eV

  energy without entropy =     -786.32666234  energy(sigma->0) =     -786.32666234


--------------------------------------------------------------------------------------------------------




--------------------------------------- Iteration      1(  14)  ---------------------------------------


    POTLOK:  cpu time    0.5991: real time    0.6079
    SETDIJ:  cpu time    2.3810: real time    2.3873
     EDDAV:  cpu time   40.7555: real time   40.8671
       DOS:  cpu time    0.0048: real time    0.0048
    CHARGE:  cpu time    1.3883: real time    1.3920
[...]
  14      -0.008    -0.008     0.228     0.008     0.228
  15       0.007     0.007     0.136    -0.005     0.136
  16       0.002     0.002    -0.004    -0.002    -0.004
  17       0.002     0.002    -0.042    -0.002    -0.042
  18      -0.003    -0.003     0.098     0.004     0.098
  19      -0.001    -0.001     0.099     0.001     0.099
  20      -0.004    -0.004    -0.099     0.003    -0.099
  21      -0.000    -0.000    -0.006     0.000    -0.006
  22      -0.010    -0.010     0.211     0.010     0.211
  23       0.315     0.312     0.415    -0.281     0.418
  24      -0.005    -0.005    -0.108     0.004    -0.108
  25       0.318     0.315     0.378    -0.285     0.381
  26      -0.069    -0.068     2.800     0.077     2.800
  27      -0.009    -0.009     0.097     0.008     0.096
  28       0.318     0.315     0.378    -0.285     0.381
  29      -0.069    -0.068     2.800     0.077     2.800
  30      -0.009    -0.009     0.097     0.008     0.097
  31      -0.010    -0.010     0.211     0.010     0.211
  32       0.315     0.312     0.415    -0.281     0.418
  33      -0.005    -0.005    -0.108     0.004    -0.108
  34      -0.001    -0.001     0.099     0.001     0.099
  35      -0.004    -0.004    -0.099     0.003    -0.099
  36      -0.000    -0.000    -0.006     0.000    -0.006
  37       0.000    -0.000    -0.003    -0.000    -0.003
  38       0.000     0.000     0.017     0.001     0.017
  39      -0.001    -0.001    -0.007    -0.002    -0.007
  40       0.001     0.001     0.040     0.001     0.040
  41       0.001     0.001     0.433     0.004     0.433
  42       0.012     0.010     0.030     0.021     0.032
  43      -0.001    -0.001     0.002    -0.001     0.002
  44      -0.074    -0.058     0.115    -0.124     0.099
  45      -0.074    -0.058     0.121    -0.124     0.105
  46      -0.001    -0.001     0.002    -0.001     0.002
  47      -0.074    -0.058     0.115    -0.124     0.099
  48      -0.074    -0.058     0.121    -0.124     0.105
  49       0.001     0.001     0.040     0.001     0.040
  50       0.001     0.001     0.433     0.004     0.433
  51       0.012     0.010     0.030     0.021     0.032
  52       0.000    -0.000    -0.003    -0.000    -0.003
  53       0.000     0.000     0.017     0.001     0.017
  54      -0.001    -0.001    -0.007    -0.002    -0.007
  55      -0.000    -0.000    -0.002    -0.000    -0.002
  56       0.001     0.001     0.033     0.001     0.034
  57       0.000     0.000     0.037     0.001     0.037
  58       0.000     0.000     0.015     0.001     0.015
  59      -0.002    -0.002     0.032    -0.004     0.032
  60      -0.002    -0.001    -0.006    -0.003    -0.007
  61      -0.002    -0.001     0.039    -0.003     0.038
  62      -0.074    -0.059     0.111    -0.125     0.096
  63      -0.002    -0.002     0.047    -0.004     0.046
  64       0.013     0.010     0.022     0.021     0.025
  65      -0.000    -0.000     0.383     0.002     0.383
  66      -0.002    -0.001     0.039    -0.003     0.038
  67      -0.074    -0.059     0.111    -0.125     0.096
  68      -0.002    -0.002     0.047    -0.004     0.046
  69       0.000     0.000     0.015     0.001     0.015
  70      -0.002    -0.002     0.032    -0.004     0.032
  71      -0.002    -0.001    -0.006    -0.003    -0.007
  72       0.000     0.000    -0.001     0.000    -0.001
  73      -0.000    -0.000    -0.001     0.000    -0.001
  74      -0.000    -0.000     0.018    -0.000     0.018
  75       0.000     0.000     0.050     0.001     0.050
  76       0.001     0.001    -0.027     0.001    -0.026
  77       0.007     0.006    -0.009     0.012    -0.008
  78      -0.000    -0.000     0.020    -0.000     0.020
  79      -0.014    -0.011     0.281    -0.021     0.278
  80      -0.014    -0.011     0.275    -0.021     0.272
  81      -0.000    -0.000     0.020    -0.000     0.020
  82      -0.014    -0.011     0.281    -0.021     0.278
  83      -0.014    -0.011     0.275    -0.021     0.272
  84       0.000     0.000     0.050     0.001     0.050
  85       0.001     0.001    -0.027     0.001    -0.026
  86       0.007     0.006    -0.009     0.012    -0.008
  87       0.000     0.000    -0.001     0.000    -0.001
  88      -0.000    -0.000    -0.001     0.000    -0.001
  89      -0.000    -0.000     0.018    -0.000     0.018
  90       0.000     0.000    -0.002     0.000    -0.002
  91       0.000     0.000     0.051     0.001     0.051
  92       0.000     0.000     0.001     0.000     0.001
  93      -0.000    -0.000    -0.002    -0.000    -0.002
  94      -0.004    -0.003    -0.056    -0.007    -0.057
  95      -0.001    -0.001     0.013    -0.001     0.013
  96      -0.003    -0.002    -0.055    -0.006    -0.055
  97      -0.014    -0.011     0.277    -0.022     0.274
  98      -0.004    -0.003    -0.051    -0.007    -0.052
  99       0.007     0.005    -0.008     0.011    -0.007
 100      -0.169    -0.132     3.518    -0.265     3.480
 101       0.001     0.001    -0.030     0.001    -0.030
 102      -0.003    -0.002    -0.055    -0.006    -0.055
 103      -0.014    -0.011     0.277    -0.022     0.274
 104      -0.004    -0.003    -0.051    -0.007    -0.052
 105      -0.000    -0.000    -0.002    -0.000    -0.002
 106      -0.004    -0.003    -0.056    -0.007    -0.057
 107      -0.001    -0.001     0.013    -0.001     0.013
 108       2.637     2.666    20.592    -4.224    20.563
 -------------------------------------------------------------


 Dipolar hyperfine coupling parameters (MHz)
 ---------------------------------------------------------------------
  ion      A_xx      A_yy      A_zz      A_xy      A_xz      A_yz
 ---------------------------------------------------------------------
   1      -0.001    -0.003     0.004     0.006    -0.001     0.002
   2      -0.029     0.052    -0.023    -0.026     0.007    -0.011
   3       0.011     0.042    -0.053     0.026     0.003    -0.003
   4      -0.008     0.009    -0.001    -0.046     0.019    -0.019
   5       0.241    -0.116    -0.125     0.302    -0.004    -0.001
   6      -0.831     1.069    -0.238    -0.468    -0.164    -0.138
   7       0.067     0.016    -0.083     0.000    -0.000     0.008
   8       0.783    -0.050    -0.733    -0.000    -0.000     0.543
   9      -0.282     0.405    -0.123     0.000     0.000     0.004
  10      -0.008     0.009    -0.001     0.046    -0.019    -0.019
  11       0.241    -0.116    -0.125    -0.302     0.004    -0.001
  12      -0.831     1.069    -0.238     0.468     0.164    -0.138
  13      -0.001    -0.003     0.004    -0.006     0.001     0.002
  14      -0.029     0.052    -0.023     0.026    -0.007    -0.011
  15       0.011     0.042    -0.053    -0.026    -0.003    -0.003
  16      -0.006     0.008    -0.001    -0.000     0.000     0.001
  17      -0.007     0.004     0.003     0.000    -0.000     0.000
  18       0.004    -0.003    -0.001    -0.000     0.000    -0.000
  19       0.010    -0.003    -0.007     0.009    -0.006    -0.003
  20      -0.028     0.040    -0.012    -0.029    -0.011     0.027
  21       0.007    -0.000    -0.006     0.002    -0.002     0.000
  22       0.013     0.007    -0.020    -0.045    -0.004     0.006
  23       0.976    -0.788    -0.188     0.616     0.037     0.207
  24       0.050    -0.040    -0.010     0.020    -0.033    -0.006
  25       0.196     0.041    -0.237     1.077     0.194    -0.077
  26       0.171     0.602    -0.772     0.384     0.479    -0.295
  27       0.040    -0.011    -0.030     0.022     0.008    -0.004
  28       0.196     0.041    -0.237    -1.077    -0.194    -0.077
  29       0.171     0.602    -0.772    -0.384    -0.479    -0.295
  30       0.040    -0.011    -0.030    -0.022    -0.008    -0.004
  31       0.013     0.007    -0.020     0.045     0.004     0.006
  32       0.976    -0.788    -0.188    -0.616    -0.037     0.207
  33       0.050    -0.040    -0.010    -0.020     0.033    -0.006
  34       0.010    -0.003    -0.007    -0.009     0.006    -0.003
  35      -0.028     0.040    -0.012     0.029     0.011     0.027
  36       0.007    -0.000    -0.006    -0.002     0.002     0.000
  37       0.002    -0.001    -0.002    -0.000    -0.002     0.000
  38       0.004    -0.002    -0.002     0.002     0.003     0.002
  39      -0.007     0.018    -0.011     0.005     0.006     0.020
  40       0.001     0.009    -0.010     0.001    -0.001    -0.003
  41       0.003    -0.009     0.007     0.007    -0.032    -0.017
  42       0.015    -0.072     0.057    -0.075     0.064    -0.036
  43       0.009    -0.000    -0.009    -0.010     0.024    -0.009
  44       0.412     0.251    -0.663     1.199    -0.566    -0.557
  45      -0.737     1.397    -0.660    -0.547    -0.208     0.767
  46       0.009    -0.000    -0.009     0.010    -0.024    -0.009
  47       0.412     0.251    -0.663    -1.199     0.566    -0.557
  48      -0.737     1.397    -0.660     0.547     0.208     0.767
  49       0.001     0.009    -0.010    -0.001     0.001    -0.003
  50       0.003    -0.009     0.007    -0.007     0.032    -0.017
  51       0.015    -0.072     0.057     0.075    -0.064    -0.036
  52       0.002    -0.001    -0.002     0.000     0.002     0.000
  53       0.004    -0.002    -0.002    -0.002    -0.003     0.002
  54      -0.007     0.018    -0.011    -0.005    -0.006     0.020
  55       0.002    -0.002     0.000    -0.000     0.000     0.000
  56       0.011    -0.000    -0.011    -0.000    -0.000     0.005
  57       0.003    -0.001    -0.003    -0.000     0.000     0.001
  58       0.002    -0.001    -0.002     0.001    -0.001    -0.000
  59      -0.026    -0.012     0.037     0.008    -0.019    -0.042
  60       0.012     0.004    -0.016     0.025    -0.018    -0.017
  61      -0.022    -0.021     0.043     0.000    -0.037    -0.005
  62       1.350    -0.692    -0.658     0.642    -0.787    -0.204
  63      -0.021    -0.018     0.039     0.018     0.035     0.038
  64      -0.118     0.065     0.052     0.000    -0.000     0.065
  65      -0.026     0.006     0.021     0.000     0.000     0.052
  66      -0.022    -0.021     0.043    -0.000     0.037    -0.005
  67       1.350    -0.692    -0.658    -0.642     0.787    -0.204
  68      -0.021    -0.018     0.039    -0.018    -0.035     0.038
  69       0.002    -0.001    -0.002    -0.001     0.001    -0.000
  70      -0.026    -0.012     0.037    -0.008     0.019    -0.042
  71       0.012     0.004    -0.016    -0.025     0.018    -0.017
  72       0.000     0.000    -0.001    -0.000     0.000    -0.002
  73       0.003    -0.003    -0.000     0.000     0.001    -0.004
  74       0.006     0.004    -0.009     0.007    -0.003    -0.005
  75      -0.000     0.006    -0.006    -0.002     0.004    -0.001
  76      -0.004    -0.001     0.005    -0.003    -0.011    -0.007
  77       0.033    -0.074     0.041    -0.092    -0.001    -0.000
  78      -0.001     0.004    -0.002    -0.001    -0.014    -0.001
  79      -0.176     0.303    -0.127     0.239     0.139     0.281
  80      -0.023     0.146    -0.123    -0.319     0.172    -0.256
  81      -0.001     0.004    -0.002     0.001     0.014    -0.001
  82      -0.176     0.303    -0.127    -0.239    -0.139     0.281
  83      -0.023     0.146    -0.123     0.319    -0.172    -0.256
  84      -0.000     0.006    -0.006     0.002    -0.004    -0.001
  85      -0.004    -0.001     0.005     0.003     0.011    -0.007
  86       0.033    -0.074     0.041     0.092     0.001    -0.000
  87       0.000     0.000    -0.001     0.000    -0.000    -0.002
  88       0.003    -0.003    -0.000    -0.000    -0.001    -0.004
  89       0.006     0.004    -0.009    -0.007     0.003    -0.005
  90       0.003    -0.000    -0.003    -0.000    -0.000     0.001
  91       0.008    -0.002    -0.005     0.000    -0.000     0.002
  92       0.003    -0.001    -0.002    -0.000    -0.000    -0.000
  93      -0.001     0.001    -0.000     0.003     0.002     0.005
  94      -0.050    -0.040     0.090    -0.001     0.038     0.050
  95       0.000     0.012    -0.012     0.011     0.005     0.007
  96      -0.054    -0.038     0.092    -0.005     0.046     0.013
  97       0.381    -0.263    -0.118    -0.100     0.331    -0.027
  98      -0.038    -0.047     0.085     0.012    -0.036    -0.056
  99      -0.138     0.099     0.039     0.000     0.000     0.010
 100      -1.915    -1.909     3.824    -0.000    -0.000    -0.033
 101      -0.003    -0.004     0.007    -0.000    -0.000     0.015
 102      -0.054    -0.038     0.092     0.005    -0.046     0.013
 103       0.381    -0.263    -0.118     0.100    -0.331    -0.027
 104      -0.038    -0.047     0.085    -0.012     0.036    -0.056
 105      -0.001     0.001    -0.000    -0.003    -0.002     0.005
 106      -0.050    -0.040     0.090     0.001    -0.038     0.050
 107       0.000     0.012    -0.012    -0.011    -0.005     0.007
 108      -3.807    -3.801     7.608    -0.000    -0.000    -0.009
 ---------------------------------------------------------------------


 Total hyperfine coupling parameters after diagonalization (MHz)
 (convention: |A_zz| > |A_xx| > |A_yy|)
 ----------------------------------------------------------------------
  ion      A_xx      A_yy      A_zz     asymmetry (A_yy - A_xx)/ A_zz 
 ----------------------------------------------------------------------
   1      -0.036    -0.036    -0.048      -0.011
   2       0.205     0.190     0.290      -0.050
   3       0.133     0.083     0.193      -0.261
   4      -0.126    -0.054    -0.160      -0.452
   5       0.546     0.383     1.084      -0.151
   6      -0.580     0.213     1.594       0.498
   7       0.507     0.407     0.557      -0.180
   8       2.914     1.631     3.447      -0.372
   9       0.782     0.623     1.309      -0.122
  10      -0.126    -0.054    -0.160      -0.452
  11       0.546     0.383     1.084      -0.151
  12      -0.580     0.213     1.594       0.498
  13      -0.036    -0.036    -0.048      -0.011
  14       0.204     0.190     0.290      -0.050
  15       0.133     0.083     0.193      -0.261
  16      -0.005     0.004    -0.010      -0.864
  17      -0.039    -0.038    -0.049      -0.014
  18       0.097     0.095     0.102      -0.020
  19       0.092     0.091     0.115      -0.015
  20      -0.122    -0.036    -0.138      -0.622
  21      -0.007     0.001    -0.013      -0.632
  22       0.191     0.175     0.267      -0.059
  23      -0.606     0.264     1.594       0.546
  24      -0.132    -0.039    -0.152      -0.608
  25      -0.627     0.184     1.585       0.511
  26       3.054     1.719     3.626      -0.368
  27       0.080     0.064     0.146      -0.116
  28      -0.627     0.184     1.585       0.511
  29       3.054     1.719     3.626      -0.368
  30       0.080     0.064     0.146      -0.116
  31       0.191     0.175     0.267      -0.059
  32      -0.606     0.264     1.594       0.546
  33      -0.132    -0.039    -0.152      -0.608
  34       0.092     0.091     0.115      -0.015
  35      -0.122    -0.036    -0.138      -0.622
  36      -0.007     0.001    -0.013      -0.634
  37      -0.004    -0.000    -0.006      -0.608
  38       0.014     0.013     0.022      -0.063
  39       0.023    -0.015    -0.029       1.296
  40       0.042     0.030     0.050      -0.236
  41       0.421     0.403     0.476      -0.037
  42      -0.083     0.017     0.163       0.611
  43      -0.023    -0.004     0.033       0.581
  44      -0.827    -0.765     1.889       0.033
  45      -0.820    -0.756     1.892       0.034
  46      -0.023    -0.004     0.033       0.581
  47      -0.827    -0.765     1.889       0.033
  48      -0.820    -0.756     1.892       0.034
  49       0.042     0.030     0.050      -0.236
  50       0.421     0.403     0.476      -0.037
  51      -0.083     0.017     0.163       0.611
  52      -0.004    -0.000    -0.006      -0.608
  53       0.014     0.013     0.022      -0.063
  54       0.023    -0.015    -0.029       1.297
  55      -0.001     0.000    -0.003      -0.444
  56       0.035     0.021     0.045      -0.325
  57       0.037     0.034     0.041      -0.058
  58       0.015     0.013     0.018      -0.063
  59      -0.005     0.003     0.097       0.083
  60      -0.033    -0.023     0.037       0.266
  61       0.017    -0.001     0.098      -0.184
  62      -0.838    -0.774     1.899       0.034
  63       0.009     0.009     0.121      -0.003
  64      -0.093     0.018     0.149       0.741
  65       0.356     0.343     0.448      -0.029
  66       0.017    -0.001     0.098      -0.184
  67      -0.838    -0.774     1.899       0.034
  68       0.009     0.009     0.121      -0.003
  69       0.015     0.013     0.018      -0.063
  70      -0.005     0.003     0.097       0.083
  71      -0.033    -0.023     0.037       0.266
  72      -0.001     0.001    -0.003      -0.417
  73       0.002     0.001    -0.007       0.171
  74       0.017     0.007     0.031      -0.320
  75       0.051     0.043     0.057      -0.150
  76      -0.026    -0.013    -0.041      -0.315
  77       0.078     0.033    -0.134       0.337
  78       0.024     0.004     0.032      -0.629
  79       0.024    -0.015     0.825      -0.047
  80       0.022    -0.014     0.808      -0.045
  81       0.024     0.004     0.032      -0.629
  82       0.024    -0.015     0.825      -0.047
  83       0.022    -0.014     0.808      -0.045
  84       0.051     0.043     0.057      -0.150
  85      -0.025    -0.013    -0.041      -0.315
  86       0.078     0.033    -0.134       0.337
  87      -0.001     0.001    -0.003      -0.418
  88       0.002     0.001    -0.007       0.172
  89       0.017     0.007     0.031      -0.320
  90      -0.002     0.002    -0.004      -0.806
  91       0.050     0.045     0.059      -0.088
  92      -0.002     0.000     0.004       0.441
  93       0.005    -0.004    -0.006       1.400
  94      -0.102     0.058    -0.127      -1.259
  95       0.007    -0.002     0.033      -0.254
  96      -0.092     0.051    -0.125      -1.138
  97      -0.026     0.015     0.832       0.049
  98      -0.099     0.064    -0.120      -1.361
  99       0.094     0.030    -0.146       0.434
 100       1.571     1.565     7.305      -0.001
 101      -0.032    -0.012    -0.044      -0.452
 102      -0.092     0.051    -0.125      -1.138
 103      -0.026     0.015     0.832       0.049
 104      -0.099     0.064    -0.120      -1.361
 105       0.005    -0.004    -0.006       1.401
 106      -0.102     0.058    -0.127      -1.259
 107       0.007    -0.002     0.033      -0.254
 108      16.763    16.756    28.171      -0.000
 ---------------------------------------------------------------------



--------------------------------------------------------------------------------------------------------


 writing wavefunctions
     LOOP+:  cpu time 1383.1119: real time 1392.2036
    4ORBIT:  cpu time    0.0000: real time    0.0000

 total amount of memory used by VASP MPI-rank0   167730. kBytes
=======================================================================

   base      :      30000. kBytes
   nonl-proj :      22749. kBytes
   fftplans  :      18200. kBytes
   grid      :      48513. kBytes
   one-center:        279. kBytes
   wavefun   :      47989. kBytes
 
  
  
 General timing and accounting informations for this job:
 ========================================================
  
                  Total CPU time used (sec):     1420.305
                            User time (sec):     1409.601
                          System time (sec):       10.705
                         Elapsed time (sec):     1430.723
  
                   Maximum memory used (kb):      374508.
                   Average memory used (kb):          N/A
  
                          Minor page faults:       338530
                          Major page faults:          367
                 Voluntary context switches:        23420
