 vasp.6.2.0 18Jan21 (build Apr 30 2021 19:00:08) gamma-only                     
  
 executed on             LinuxIFC date 2022.12.30  16:26:51
 running on   24 total cores
 distrk:  each k-point on   24 cores,    1 groups
 distr:  one band on NCORE=   6 cores,    4 groups


--------------------------------------------------------------------------------------------------------


 INCAR:
   SYSTEM = Diamond
   PREC = Normal
   ISTART = 0
   ICHARG = 11
   ISPIN = 2
   MAGMOM = 572*0.0 1*2.0 2*2.0 1*3
   NPAR = 4
   NELECT = 2303
   LHYPERFINE = T
   LEFG = T
   ENCUT = 700
   NELM = 1000
   NELMIN = 4
   EDIFF = 1E-06
   LREAL = Auto
   ALGO = Normal
   EDIFFG = -1E-02
   NSW = 0
   IBRION = 2
   ISIF = 2
   ISYM = 2
   POTIM = 0.5
   ISMEAR = 0
   SIGMA = 0.05
   NEDOS = 1000
   LWAVE = F
   LCHARG = F
   LVHAR = F
   LELF = F

 POTCAR:    PAW_PBE C 08Apr2002                   
 POTCAR:    PAW_PBE H 15Jun2001                   
 POTCAR:    PAW_PBE C 08Apr2002                   
 POTCAR:    PAW_PBE N 08Apr2002                   
 POTCAR:    PAW_PBE C 08Apr2002                   
   VRHFIN =C: s2p2                                                                                  
   LEXCH  = PE                                                                                      
   EATOM  =   147.1560 eV,   10.8157 Ry                                                             
                                                                                                    
   TITEL  = PAW_PBE C 08Apr2002                                                                     
   LULTRA =        F    use ultrasoft PP ?                                                          
   IUNSCR =        1    unscreen: 0-lin 1-nonlin 2-no                                               
   RPACOR =    1.200    partial core radius                                                         
   POMASS =   12.011; ZVAL   =    4.000    mass and valenz                                          
   RCORE  =    1.500    outmost cutoff radius                                                       
   RWIGS  =    1.630; RWIGS  =    0.863    wigner-seitz radius (au A)                               
   ENMAX  =  400.000; ENMIN  =  300.000 eV                                                          
   ICORE  =        2    local potential                                                             
   LCOR   =        T    correct aug charges                                                         
   LPAW   =        T    paw PP                                                                      
   EAUG   =  644.873                                                                                
   DEXC   =    0.000                                                                                
   RMAX   =    1.529    core radius for proj-oper                                                   
   RAUG   =    1.300    factor for augmentation sphere                                              
   RDEP   =    1.501    radius for radial grids                                                     
   RDEPT  =    1.300    core radius for aug-charge                                                  
                                                                                                    
   Atomic configuration                                                                             
    4 entries                                                                                       
     n  l   j            E        occ.                                                              
     1  0  0.50      -273.3789   2.0000                                                             
     2  0  0.50       -13.7508   2.0000                                                             
     2  1  0.50        -5.2854   2.0000                                                             
     3  2  1.50        -5.4423   0.0000                                                             
   Description                                                                                      
     l       E           TYP  RCUT    TYP  RCUT                                                     
     0    -13.7508458     23  1.200                                                                 
     0     -8.2022199     23  1.200                                                                 
     1     -5.2854383     23  1.500                                                                 
     1     34.0145650     23  1.500                                                                 
     2     -5.4423304      7  1.500                                                                 
  local pseudopotential read in
  partial core-charges read in
  partial kinetic energy density read in
  atomic valenz-charges read in
  non local Contribution for L=           0  read in
    real space projection operators read in
  non local Contribution for L=           0  read in
    real space projection operators read in
  non local Contribution for L=           1  read in
    real space projection operators read in
  non local Contribution for L=           1  read in
    real space projection operators read in
    PAW grid and wavefunctions read in
 
   number of l-projection  operators is LMAX  =           4
   number of lm-projection operators is LMMAX =           8
 
 POTCAR:    PAW_PBE H 15Jun2001                   
   VRHFIN =H: ultrasoft test                                                                        
   LEXCH  = PE                                                                                      
   EATOM  =    12.4884 eV,    0.9179 Ry                                                             
                                                                                                    
   TITEL  = PAW_PBE H 15Jun2001                                                                     
   LULTRA =        F    use ultrasoft PP ?                                                          
   IUNSCR =        0    unscreen: 0-lin 1-nonlin 2-no                                               
   RPACOR =    0.000    partial core radius                                                         
   POMASS =    1.000; ZVAL   =    1.000    mass and valenz                                          
   RCORE  =    1.100    outmost cutoff radius                                                       
   RWIGS  =    0.700; RWIGS  =    0.370    wigner-seitz radius (au A)                               
   ENMAX  =  250.000; ENMIN  =  200.000 eV                                                          
   RCLOC  =    0.701    cutoff for local pot                                                        
   LCOR   =        T    correct aug charges                                                         
   LPAW   =        T    paw PP                                                                      
   EAUG   =  400.000                                                                                
   RMAX   =    1.123    core radius for proj-oper                                                   
   RAUG   =    1.200    factor for augmentation sphere                                              
   RDEP   =    1.112    radius for radial grids                                                     
   RDEPT  =    0.926    core radius for aug-charge                                                  
                                                                                                    
   Atomic configuration                                                                             
    2 entries                                                                                       
     n  l   j            E        occ.                                                              
     1  0  0.50        -6.4927   1.0000                                                             
     2  1  0.50        -3.4015   0.0000                                                             
   Description                                                                                      
     l       E           TYP  RCUT    TYP  RCUT                                                     
     0     -6.4927494     23  1.100                                                                 
     0      6.8029130     23  1.100                                                                 
     1     -4.0817478     23  1.100                                                                 
  local pseudopotential read in
  atomic valenz-charges read in
  non local Contribution for L=           0  read in
    real space projection operators read in
  non local Contribution for L=           0  read in
    real space projection operators read in
  non local Contribution for L=           1  read in
    real space projection operators read in
    PAW grid and wavefunctions read in
 
   number of l-projection  operators is LMAX  =           3
   number of lm-projection operators is LMMAX =           5
 
 POTCAR:    PAW_PBE C 08Apr2002                   
   VRHFIN =C: s2p2                                                                                  
   LEXCH  = PE                                                                                      
   EATOM  =   147.1560 eV,   10.8157 Ry                                                             
                                                                                                    
   TITEL  = PAW_PBE C 08Apr2002                                                                     
   LULTRA =        F    use ultrasoft PP ?                                                          
   IUNSCR =        1    unscreen: 0-lin 1-nonlin 2-no                                               
   RPACOR =    1.200    partial core radius                                                         
   POMASS =   12.011; ZVAL   =    4.000    mass and valenz                                          
   RCORE  =    1.500    outmost cutoff radius                                                       
   RWIGS  =    1.630; RWIGS  =    0.863    wigner-seitz radius (au A)                               
   ENMAX  =  400.000; ENMIN  =  300.000 eV                                                          
   ICORE  =        2    local potential                                                             
   LCOR   =        T    correct aug charges                                                         
   LPAW   =        T    paw PP                                                                      
   EAUG   =  644.873                                                                                
   DEXC   =    0.000                                                                                
   RMAX   =    1.529    core radius for proj-oper                                                   
   RAUG   =    1.300    factor for augmentation sphere                                              
   RDEP   =    1.501    radius for radial grids                                                     
   RDEPT  =    1.300    core radius for aug-charge                                                  
                                                                                                    
   Atomic configuration                                                                             
    4 entries                                                                                       
     n  l   j            E        occ.                                                              
     1  0  0.50      -273.3789   2.0000                                                             
     2  0  0.50       -13.7508   2.0000                                                             
     2  1  0.50        -5.2854   2.0000                                                             
     3  2  1.50        -5.4423   0.0000                                                             
   Description                                                                                      
     l       E           TYP  RCUT    TYP  RCUT                                                     
     0    -13.7508458     23  1.200                                                                 
     0     -8.2022199     23  1.200                                                                 
     1     -5.2854383     23  1.500                                                                 
     1     34.0145650     23  1.500                                                                 
     2     -5.4423304      7  1.500                                                                 
  local pseudopotential read in
  partial core-charges read in
  partial kinetic energy density read in
  atomic valenz-charges read in
  non local Contribution for L=           0  read in
    real space projection operators read in
  non local Contribution for L=           0  read in
    real space projection operators read in
  non local Contribution for L=           1  read in
    real space projection operators read in
  non local Contribution for L=           1  read in
    real space projection operators read in
    PAW grid and wavefunctions read in
 
   number of l-projection  operators is LMAX  =           4
   number of lm-projection operators is LMMAX =           8
 
 POTCAR:    PAW_PBE N 08Apr2002                   
   VRHFIN =N: s2p3                                                                                  
   LEXCH  = PE                                                                                      
   EATOM  =   264.5486 eV,   19.4438 Ry                                                             
                                                                                                    
   TITEL  = PAW_PBE N 08Apr2002                                                                     
   LULTRA =        F    use ultrasoft PP ?                                                          
   IUNSCR =        1    unscreen: 0-lin 1-nonlin 2-no                                               
   RPACOR =    1.200    partial core radius                                                         
   POMASS =   14.001; ZVAL   =    5.000    mass and valenz                                          
   RCORE  =    1.500    outmost cutoff radius                                                       
   RWIGS  =    1.400; RWIGS  =    0.741    wigner-seitz radius (au A)                               
   ENMAX  =  400.000; ENMIN  =  300.000 eV                                                          
   ICORE  =        2    local potential                                                             
   LCOR   =        T    correct aug charges                                                         
   LPAW   =        T    paw PP                                                                      
   EAUG   =  627.112                                                                                
   DEXC   =    0.000                                                                                
   RMAX   =    1.529    core radius for proj-oper                                                   
   RAUG   =    1.300    factor for augmentation sphere                                              
   RDEP   =    1.514    radius for radial grids                                                     
   RDEPT  =    1.338    core radius for aug-charge                                                  
                                                                                                    
   Atomic configuration                                                                             
    4 entries                                                                                       
     n  l   j            E        occ.                                                              
     1  0  0.50      -384.7179   2.0000                                                             
     2  0  0.50       -18.5828   2.0000                                                             
     2  1  0.50        -7.0898   3.0000                                                             
     3  2  1.50        -6.8029   0.0000                                                             
   Description                                                                                      
     l       E           TYP  RCUT    TYP  RCUT                                                     
     0    -18.5828119     23  1.200                                                                 
     0    -13.5018863     23  1.200                                                                 
     1     -7.0897853     23  1.500                                                                 
     1      9.5240782     23  1.500                                                                 
     2     -6.8029130      7  1.500                                                                 
  local pseudopotential read in
  partial core-charges read in
  partial kinetic energy density read in
  atomic valenz-charges read in
  non local Contribution for L=           0  read in
    real space projection operators read in
  non local Contribution for L=           0  read in
    real space projection operators read in
  non local Contribution for L=           1  read in
    real space projection operators read in
  non local Contribution for L=           1  read in
    real space projection operators read in
    PAW grid and wavefunctions read in
 
   number of l-projection  operators is LMAX  =           4
   number of lm-projection operators is LMMAX =           8
 
 Optimization of the real space projectors (new method)

 maximal supplied QI-value         = 25.13
 optimisation between [QCUT,QGAM] = [ 13.32, 26.89] = [ 49.69,202.52] Ry 
 Optimized for a Real-space Cutoff    1.01 Angstroem

   l    n(q)    QCUT    max X(q) W(low)/X(q) W(high)/X(q)  e(spline) 
   0      8    13.321   115.676    0.29E-03    0.42E-03    0.11E-06
   0      8    13.321    87.132    0.29E-03    0.42E-03    0.11E-06
   1      8    13.321     4.429    0.39E-03    0.33E-03    0.98E-07
   1      8    13.321     2.733    0.30E-03    0.26E-03    0.97E-07
 Optimization of the real space projectors (new method)

 maximal supplied QI-value         = 34.20
 optimisation between [QCUT,QGAM] = [ 13.34, 27.02] = [ 49.83,204.46] Ry 
 Optimized for a Real-space Cutoff    0.93 Angstroem

   l    n(q)    QCUT    max X(q) W(low)/X(q) W(high)/X(q)  e(spline) 
   0      7    13.340    19.460    0.47E-03    0.72E-04    0.17E-06
   0      7    13.340    12.209    0.45E-03    0.63E-04    0.16E-06
   1      7    13.340     4.655    0.21E-03    0.61E-03    0.12E-06
 Optimization of the real space projectors (new method)

 maximal supplied QI-value         = 25.13
 optimisation between [QCUT,QGAM] = [ 13.32, 26.89] = [ 49.69,202.52] Ry 
 Optimized for a Real-space Cutoff    1.01 Angstroem

   l    n(q)    QCUT    max X(q) W(low)/X(q) W(high)/X(q)  e(spline) 
   0      8    13.321   115.676    0.29E-03    0.42E-03    0.11E-06
   0      8    13.321    87.132    0.29E-03    0.42E-03    0.11E-06
   1      8    13.321     4.429    0.39E-03    0.33E-03    0.98E-07
   1      8    13.321     2.733    0.30E-03    0.26E-03    0.97E-07
 Optimization of the real space projectors (new method)

 maximal supplied QI-value         = 25.13
 optimisation between [QCUT,QGAM] = [ 13.32, 26.89] = [ 49.69,202.52] Ry 
 Optimized for a Real-space Cutoff    1.01 Angstroem

   l    n(q)    QCUT    max X(q) W(low)/X(q) W(high)/X(q)  e(spline) 
   0      8    13.321    79.467    0.28E-03    0.38E-03    0.11E-06
   0      8    13.321    66.151    0.27E-03    0.38E-03    0.11E-06
   1      8    13.321    23.070    0.40E-03    0.78E-03    0.29E-06
   1      8    13.321    16.668    0.40E-03    0.79E-03    0.30E-06
  PAW_PBE C 08Apr2002                   :
 energy of atom  1       EATOM= -147.1560
 kinetic energy error for atom=    0.0032 (will be added to EATOM!!)
  PAW_PBE H 15Jun2001                   :
 energy of atom  2       EATOM=  -12.4884
 kinetic energy error for atom=    0.0002 (will be added to EATOM!!)
  PAW_PBE C 08Apr2002                   :
 energy of atom  3       EATOM= -147.1560
 kinetic energy error for atom=    0.0032 (will be added to EATOM!!)
  PAW_PBE N 08Apr2002                   :
 energy of atom  4       EATOM= -264.5486
 kinetic energy error for atom=    0.0061 (will be added to EATOM!!)
 
 
 POSCAR: Autosave
  positions in direct lattice
  velocities in cartesian coordinates
 exchange correlation table for  LEXCH =        8
   RHO(1)=    0.500       N(1)  =     2000
   RHO(2)=  100.500       N(2)  =     4000
 


--------------------------------------------------------------------------------------------------------


 ion  position               nearest neighbor table
   1  0.000  1.000  1.000- 288 1.55 475 1.55 437 1.55 384 1.55
   2  0.000  1.000  0.500- 289 1.55 474 1.55 436 1.55 383 1.55
   3  0.000  0.250  1.000- 290 1.55 469 1.55 431 1.55 386 1.55
   4  0.000  0.250  0.500- 291 1.55 468 1.55 430 1.55 385 1.55
   5  0.000  0.500  1.000- 388 1.55 292 1.55 471 1.55 433 1.55
   6  0.000  0.500  0.500- 470 1.55 432 1.55 293 1.55 387 1.55
   7  0.000  0.750  1.000- 294 1.55 390 1.55 473 1.55 435 1.55
   8  0.000  0.750  0.500- 295 1.55 389 1.55 472 1.55 434 1.55
   9  0.167  0.000  1.000- 296 1.55 437 1.55 445 1.55 392 1.55
  10  0.167  0.000  0.500- 391 1.54 444 1.55 436 1.55 297 1.55
  11  0.167  0.250  1.000- 431 1.55 298 1.55 439 1.55 394 1.55
  12  0.167  0.250  0.500- 430 1.55 299 1.55 438 1.55 393 1.55
  13  0.167  0.500  0.000- 300 1.55 441 1.55 396 1.55 433 1.55
  14  0.167  0.500  0.500- 440 1.54 301 1.55 432 1.55 395 1.55
  15  0.167  0.750  0.000- 443 1.55 302 1.55 398 1.55 435 1.55
  16  0.167  0.750  0.500- 303 1.55 434 1.55 442 1.55 397 1.55
  17  0.333  0.000  1.000- 304 1.55 400 1.55 452 1.55 445 1.55
  18  0.333  0.000  0.500- 399 1.54 451 1.55 305 1.55 444 1.55
  19  0.333  0.250  1.000- 306 1.55 439 1.55 447 1.55 402 1.55
  20  0.333  0.250  0.500- 401 1.54 438 1.54 307 1.55 446 1.55
  21  0.333  0.500  0.000- 308 1.54 448 1.55 404 1.55 441 1.55
  22  0.336  0.499  0.499- 574 1.51 309 1.55 403 1.55 440 1.57
  23  0.333  0.750  0.000- 310 1.55 450 1.55 406 1.55 443 1.55
  24  0.333  0.751  0.500- 449 1.54 405 1.54 311 1.55 442 1.55
  25  0.500  0.000  1.000- 312 1.55 408 1.55 459 1.55 452 1.55
  26  0.500  0.000  0.500- 407 1.54 313 1.55 458 1.55 451 1.55
  27  0.500  0.250  0.000- 410 1.54 314 1.54 454 1.55 447 1.55
  28  0.500  0.250  0.500- 409 1.54 315 1.55 453 1.55 446 1.55
  29  0.500  0.500  0.000- 316 1.54 455 1.55 448 1.55 411 1.55
  30  0.500  0.750  1.000- 317 1.54 413 1.55 457 1.55 450 1.55
  31  0.500  0.751  0.500- 412 1.54 318 1.55 456 1.55 449 1.55
  32  0.667  0.000  1.000- 319 1.55 415 1.55 459 1.55 467 1.55
  33  0.667  0.000  0.500- 414 1.54 458 1.55 320 1.55 466 1.55
  34  0.667  0.250  1.000- 321 1.55 461 1.55 454 1.55 417 1.55
  35  0.667  0.250  0.500- 416 1.54 460 1.54 322 1.55 453 1.55
  36  0.667  0.500  0.000- 323 1.54 455 1.55 419 1.55 463 1.55
  37  0.664  0.499  0.499- 575 1.51 324 1.55 418 1.55 462 1.57
  38  0.667  0.750  0.000- 325 1.55 457 1.55 421 1.55 465 1.55
  39  0.667  0.751  0.500- 456 1.54 420 1.54 326 1.55 464 1.55
  40  0.833  0.000  1.000- 327 1.55 475 1.55 467 1.55 423 1.55
  41  0.833  0.000  0.500- 422 1.54 466 1.55 474 1.55 328 1.55
  42  0.833  0.250  1.000- 469 1.55 329 1.55 461 1.55 425 1.55
  43  0.833  0.250  0.500- 468 1.55 330 1.55 460 1.55 424 1.55
  44  0.833  0.500  0.000- 331 1.55 463 1.55 427 1.55 471 1.55
  45  0.833  0.500  0.500- 462 1.54 332 1.55 470 1.55 426 1.55
  46  0.833  0.750  0.000- 465 1.55 333 1.55 429 1.55 473 1.55
  47  0.833  0.750  0.500- 334 1.55 472 1.55 464 1.55 428 1.55
  48  0.083  0.125  1.000- 335 1.55 384 1.55 431 1.55 392 1.55
  49  0.083  0.125  0.500- 383 1.55 336 1.55 391 1.55 430 1.55
  50  0.083  0.375  1.000- 386 1.55 337 1.55 433 1.55 394 1.55
  51  0.083  0.375  0.500- 338 1.55 385 1.55 432 1.55 393 1.55
  52  0.083  0.625  0.000- 435 1.55 396 1.55 388 1.55 339 1.55
  53  0.083  0.625  0.500- 340 1.55 434 1.55 387 1.55 395 1.55
  54  0.083  0.875  0.000- 341 1.55 390 1.55 437 1.55 398 1.55
  55  0.083  0.875  0.500- 342 1.55 389 1.55 397 1.55 436 1.55
  56  0.250  0.125  1.000- 343 1.55 439 1.55 392 1.55 400 1.55
  57  0.250  0.125  0.500- 438 1.54 391 1.55 344 1.55 399 1.55
  58  0.250  0.375  1.000- 345 1.54 394 1.54 441 1.55 402 1.55
  59  0.250  0.375  0.500- 346 1.55 393 1.55 440 1.55 401 1.55
  60  0.250  0.625  0.000- 404 1.54 347 1.54 443 1.55 396 1.55
  61  0.251  0.625  0.500- 348 1.55 395 1.55 442 1.55 403 1.55
  62  0.250  0.875  0.000- 349 1.55 445 1.55 406 1.55 398 1.55
  63  0.250  0.875  0.500- 405 1.54 444 1.54 350 1.55 397 1.55
  64  0.417  0.125  1.000- 351 1.55 447 1.55 408 1.55 400 1.55
  65  0.417  0.125  0.500- 446 1.54 352 1.55 407 1.55 399 1.55
  66  0.417  0.375  0.000- 353 1.54 448 1.55 410 1.55 402 1.55
  67  0.417  0.375  0.499- 574 1.49 409 1.55 354 1.55 401 1.55
  68  0.417  0.625  0.000- 355 1.54 411 1.55 404 1.55 450 1.55
  69  0.417  0.626  0.499- 572 1.52 449 1.54 403 1.55 356 1.55
  70  0.417  0.875  1.000- 452 1.55 357 1.55 413 1.55 406 1.55
  71  0.417  0.875  0.500- 451 1.54 412 1.55 358 1.55 405 1.55
  72  0.583  0.125  1.000- 359 1.55 454 1.55 408 1.55 415 1.55
  73  0.583  0.125  0.500- 453 1.54 360 1.55 407 1.55 414 1.55
  74  0.583  0.375  0.000- 361 1.54 455 1.55 410 1.55 417 1.55
  75  0.583  0.375  0.499- 575 1.49 409 1.55 362 1.55 416 1.55
  76  0.583  0.625  0.000- 363 1.54 411 1.55 419 1.55 457 1.55
  77  0.583  0.626  0.499- 572 1.52 456 1.54 418 1.55 364 1.55
  78  0.583  0.875  1.000- 459 1.55 365 1.55 413 1.55 421 1.55
  79  0.583  0.875  0.500- 458 1.54 412 1.55 366 1.55 420 1.55
  80  0.750  0.125  1.000- 367 1.55 461 1.55 423 1.55 415 1.55
  81  0.750  0.125  0.500- 460 1.54 422 1.55 368 1.55 414 1.55
  82  0.750  0.375  1.000- 369 1.54 425 1.54 463 1.55 417 1.55
  83  0.750  0.375  0.500- 370 1.55 424 1.55 462 1.55 416 1.55
  84  0.750  0.625  0.000- 419 1.54 371 1.54 465 1.55 427 1.55
  85  0.749  0.625  0.500- 372 1.55 426 1.55 464 1.55 418 1.55
  86  0.750  0.875  0.000- 373 1.55 467 1.55 421 1.55 429 1.55
  87  0.750  0.875  0.500- 420 1.54 466 1.54 374 1.55 428 1.55
  88  0.917  0.125  1.000- 375 1.55 384 1.55 469 1.55 423 1.55
  89  0.917  0.125  0.500- 383 1.55 376 1.55 422 1.55 468 1.55
  90  0.917  0.375  1.000- 386 1.55 377 1.55 471 1.55 425 1.55
  91  0.917  0.375  0.500- 378 1.55 385 1.55 470 1.55 424 1.55
  92  0.917  0.625  0.000- 473 1.55 427 1.55 388 1.55 379 1.55
  93  0.917  0.625  0.500- 380 1.55 472 1.55 387 1.55 426 1.55
  94  0.917  0.875  0.000- 381 1.55 390 1.55 475 1.55 429 1.55
  95  0.917  0.875  0.500- 382 1.55 389 1.55 428 1.55 474 1.55
  96  0.000  0.083  0.333- 564 1.55 524 1.55 383 1.55 476 1.55
  97  0.000  0.083  0.833- 384 1.55 565 1.55 525 1.55 477 1.55
  98  0.000  0.333  0.333- 385 1.55 478 1.55 566 1.55 526 1.55
  99  0.000  0.333  0.833- 386 1.55 479 1.55 567 1.55 527 1.55
 100  0.000  0.583  0.333- 387 1.55 480 1.55 568 1.55 528 1.55
 101  0.000  0.583  0.833- 481 1.55 388 1.55 569 1.55 529 1.55
 102  0.000  0.833  0.333- 389 1.55 482 1.55 570 1.55 530 1.55
 103  0.000  0.833  0.833- 390 1.55 483 1.55 571 1.55 531 1.55
 104  0.167  0.083  0.333- 524 1.55 484 1.55 532 1.55 391 1.55
 105  0.167  0.083  0.833- 392 1.55 533 1.55 525 1.55 485 1.55
 106  0.167  0.333  0.333- 393 1.55 526 1.55 486 1.55 534 1.55
 107  0.167  0.333  0.833- 394 1.55 527 1.55 535 1.55 487 1.55
 108  0.167  0.583  0.333- 395 1.55 536 1.55 488 1.55 528 1.55
 109  0.167  0.583  0.833- 489 1.55 529 1.55 396 1.55 537 1.55
 110  0.167  0.833  0.333- 538 1.55 397 1.55 490 1.55 530 1.55
 111  0.167  0.833  0.833- 398 1.55 539 1.55 531 1.55 491 1.55
 112  0.333  0.083  0.333- 492 1.55 532 1.55 540 1.55 399 1.55
 113  0.333  0.083  0.833- 400 1.55 541 1.55 493 1.55 533 1.55
 114  0.333  0.333  0.333- 534 1.55 542 1.55 401 1.55 494 1.55
 115  0.333  0.333  0.833- 402 1.55 495 1.55 543 1.55 535 1.55
 116  0.334  0.583  0.334- 544 1.54 403 1.54 536 1.55 496 1.55
 117  0.333  0.583  0.834- 545 1.54 404 1.54 497 1.55 537 1.55
 118  0.333  0.834  0.333- 498 1.54 546 1.55 538 1.55 405 1.55
 119  0.333  0.833  0.833- 406 1.55 547 1.55 499 1.55 539 1.55
 120  0.500  0.083  0.333- 500 1.55 407 1.55 548 1.55 540 1.55
 121  0.500  0.083  0.833- 408 1.55 549 1.55 541 1.55 501 1.55
 122  0.500  0.333  0.333- 409 1.54 502 1.54 550 1.55 542 1.55
 123  0.500  0.333  0.834- 503 1.54 410 1.54 551 1.55 543 1.55
 124  0.500  0.585  0.333- 572 1.52 504 1.54 552 1.55 544 1.55
 125  0.500  0.584  0.834- 411 1.54 505 1.55 553 1.55 545 1.55
 126  0.500  0.834  0.333- 506 1.55 412 1.55 554 1.55 546 1.55
 127  0.500  0.833  0.833- 413 1.55 507 1.55 555 1.55 547 1.55
 128  0.667  0.083  0.333- 508 1.55 556 1.55 548 1.55 414 1.55
 129  0.667  0.083  0.833- 415 1.55 549 1.55 509 1.55 557 1.55
 130  0.667  0.333  0.333- 558 1.55 550 1.55 416 1.55 510 1.55
 131  0.667  0.333  0.833- 417 1.55 511 1.55 551 1.55 559 1.55
 132  0.666  0.583  0.334- 552 1.54 418 1.54 560 1.55 512 1.55
 133  0.667  0.583  0.834- 553 1.54 419 1.54 513 1.55 561 1.55
 134  0.667  0.834  0.333- 514 1.54 554 1.55 562 1.55 420 1.55
 135  0.667  0.833  0.833- 421 1.55 555 1.55 515 1.55 563 1.55
 136  0.833  0.083  0.333- 564 1.55 516 1.55 556 1.55 422 1.55
 137  0.833  0.083  0.833- 423 1.55 557 1.55 565 1.55 517 1.55
 138  0.833  0.333  0.333- 424 1.55 566 1.55 518 1.55 558 1.55
 139  0.833  0.333  0.833- 425 1.55 567 1.55 559 1.55 519 1.55
 140  0.833  0.583  0.333- 426 1.55 560 1.55 520 1.55 568 1.55
 141  0.833  0.583  0.833- 521 1.55 569 1.55 427 1.55 561 1.55
 142  0.833  0.833  0.333- 562 1.55 428 1.55 522 1.55 570 1.55
 143  0.833  0.833  0.833- 429 1.55 563 1.55 571 1.55 523 1.55
 144  0.083  0.208  0.333- 484 1.55 430 1.55 476 1.55 526 1.55
 145  0.083  0.208  0.833- 431 1.55 485 1.55 477 1.55 527 1.55
 146  0.083  0.458  0.333- 486 1.55 528 1.55 432 1.55 478 1.55
 147  0.083  0.458  0.833- 529 1.55 433 1.55 487 1.55 479 1.55
 148  0.083  0.708  0.333- 434 1.55 488 1.55 530 1.55 480 1.55
 149  0.083  0.708  0.833- 435 1.55 531 1.55 481 1.55 489 1.55
 150  0.083  0.958  0.333- 490 1.55 436 1.55 524 1.55 482 1.55
 151  0.083  0.958  0.833- 437 1.55 491 1.55 525 1.55 483 1.55
 152  0.250  0.208  0.333- 484 1.55 492 1.55 534 1.55 438 1.55
 153  0.250  0.208  0.833- 439 1.55 493 1.55 485 1.55 535 1.55
 154  0.250  0.458  0.333- 536 1.55 486 1.55 440 1.55 494 1.55
 155  0.250  0.458  0.833- 495 1.55 537 1.55 441 1.55 487 1.55
 156  0.250  0.708  0.333- 496 1.55 442 1.55 488 1.55 538 1.55
 157  0.250  0.708  0.833- 497 1.55 539 1.55 489 1.55 443 1.55
 158  0.250  0.958  0.333- 532 1.55 498 1.55 490 1.55 444 1.55
 159  0.250  0.958  0.833- 445 1.55 499 1.55 533 1.55 491 1.55
 160  0.417  0.208  0.333- 542 1.55 446 1.55 492 1.55 500 1.55
 161  0.417  0.208  0.833- 493 1.55 501 1.55 447 1.55 543 1.55
 162  0.417  0.458  0.334- 574 1.49 502 1.55 494 1.55 544 1.56
 163  0.417  0.458  0.834- 448 1.54 495 1.55 503 1.55 545 1.55
 164  0.417  0.709  0.333- 546 1.54 496 1.55 504 1.55 449 1.55
 165  0.417  0.708  0.833- 505 1.55 450 1.55 497 1.55 547 1.55
 166  0.417  0.958  0.333- 540 1.55 451 1.55 498 1.55 506 1.55
 167  0.417  0.958  0.833- 452 1.55 541 1.55 499 1.55 507 1.55
 168  0.583  0.208  0.333- 550 1.55 453 1.55 508 1.55 500 1.55
 169  0.583  0.208  0.833- 509 1.55 501 1.55 454 1.55 551 1.55
 170  0.583  0.458  0.334- 575 1.49 502 1.55 510 1.55 552 1.56
 171  0.583  0.458  0.834- 455 1.54 511 1.55 503 1.55 553 1.55
 172  0.583  0.709  0.333- 554 1.54 512 1.55 504 1.55 456 1.55
 173  0.583  0.708  0.833- 505 1.55 457 1.55 513 1.55 555 1.55
 174  0.583  0.958  0.333- 548 1.55 458 1.55 514 1.55 506 1.55
 175  0.583  0.958  0.833- 459 1.55 549 1.55 515 1.55 507 1.55
 176  0.750  0.208  0.333- 516 1.55 508 1.55 558 1.55 460 1.55
 177  0.750  0.208  0.833- 461 1.55 509 1.55 517 1.55 559 1.55
 178  0.750  0.458  0.333- 560 1.55 518 1.55 462 1.55 510 1.55
 179  0.750  0.458  0.833- 511 1.55 561 1.55 463 1.55 519 1.55
 180  0.750  0.708  0.333- 512 1.55 464 1.55 520 1.55 562 1.55
 181  0.750  0.708  0.833- 513 1.55 563 1.55 521 1.55 465 1.55
 182  0.750  0.958  0.333- 556 1.55 514 1.55 522 1.55 466 1.55
 183  0.750  0.958  0.833- 467 1.55 515 1.55 557 1.55 523 1.55
 184  0.917  0.208  0.333- 516 1.55 468 1.55 476 1.55 566 1.55
 185  0.917  0.208  0.833- 469 1.55 517 1.55 477 1.55 567 1.55
 186  0.917  0.458  0.333- 518 1.55 568 1.55 470 1.55 478 1.55
 187  0.917  0.458  0.833- 569 1.55 471 1.55 519 1.55 479 1.55
 188  0.917  0.708  0.333- 472 1.55 520 1.55 570 1.55 480 1.55
 189  0.917  0.708  0.833- 473 1.55 571 1.55 481 1.55 521 1.55
 190  0.917  0.958  0.333- 522 1.55 474 1.55 564 1.55 482 1.55
 191  0.917  0.958  0.833- 475 1.55 523 1.55 565 1.55 483 1.55
 192  0.000  0.167  0.167- 375 1.55 335 1.55 476 1.55 290 1.55
 193  0.000  0.167  0.667- 477 1.55 376 1.55 336 1.55 291 1.55
 194  0.000  0.417  0.167- 377 1.55 337 1.55 478 1.55 292 1.55
 195  0.000  0.417  0.667- 293 1.55 479 1.55 378 1.55 338 1.55
 196  0.000  0.667  0.167- 379 1.55 339 1.55 480 1.55 294 1.55
 197  0.000  0.667  0.667- 481 1.55 295 1.55 380 1.55 340 1.55
 198  0.000  0.917  0.167- 381 1.55 341 1.55 482 1.55 288 1.55
 199  0.000  0.917  0.667- 483 1.55 382 1.55 342 1.55 289 1.55
 200  0.167  0.167  0.167- 335 1.55 484 1.55 298 1.55 343 1.55
 201  0.167  0.167  0.667- 485 1.55 344 1.55 299 1.55 336 1.55
 202  0.167  0.417  0.167- 337 1.55 300 1.55 486 1.55 345 1.55
 203  0.167  0.417  0.667- 301 1.55 346 1.55 487 1.55 338 1.55
 204  0.167  0.667  0.167- 347 1.55 488 1.55 302 1.55 339 1.55
 205  0.167  0.667  0.667- 489 1.55 303 1.55 340 1.55 348 1.55
 206  0.167  0.917  0.167- 349 1.55 296 1.55 490 1.55 341 1.55
 207  0.167  0.917  0.667- 491 1.55 350 1.55 342 1.55 297 1.55
 208  0.333  0.167  0.167- 306 1.55 492 1.55 343 1.55 351 1.55
 209  0.333  0.167  0.667- 493 1.55 352 1.55 307 1.55 344 1.55
 210  0.333  0.416  0.166- 494 1.54 345 1.54 353 1.55 308 1.55
 211  0.334  0.417  0.666- 354 1.54 309 1.54 346 1.55 495 1.55
 212  0.333  0.667  0.167- 496 1.55 355 1.55 347 1.55 310 1.55
 213  0.334  0.666  0.667- 348 1.55 497 1.55 311 1.55 356 1.55
 214  0.333  0.917  0.167- 304 1.55 498 1.55 357 1.55 349 1.55
 215  0.333  0.917  0.667- 499 1.55 358 1.55 305 1.55 350 1.55
 216  0.500  0.167  0.167- 314 1.55 500 1.55 359 1.55 351 1.55
 217  0.500  0.167  0.667- 501 1.55 360 1.55 352 1.55 315 1.55
 218  0.500  0.417  0.167- 502 1.54 316 1.55 361 1.55 353 1.55
 219  0.500  0.419  0.668- 576 1.48 503 1.54 362 1.56 354 1.56
 220  0.500  0.667  0.166- 504 1.54 317 1.54 363 1.55 355 1.55
 221  0.500  0.667  0.667- 364 1.54 356 1.54 318 1.55 505 1.55
 222  0.500  0.917  0.167- 312 1.55 506 1.55 365 1.55 357 1.55
 223  0.500  0.917  0.667- 507 1.55 313 1.55 366 1.55 358 1.55
 224  0.667  0.167  0.167- 321 1.55 508 1.55 367 1.55 359 1.55
 225  0.667  0.167  0.667- 509 1.55 360 1.55 322 1.55 368 1.55
 226  0.667  0.416  0.166- 510 1.54 369 1.54 361 1.55 323 1.55
 227  0.666  0.417  0.666- 362 1.54 324 1.54 370 1.55 511 1.55
 228  0.667  0.667  0.167- 512 1.55 363 1.55 371 1.55 325 1.55
 229  0.666  0.666  0.667- 372 1.55 513 1.55 326 1.55 364 1.55
 230  0.667  0.917  0.167- 319 1.55 514 1.55 365 1.55 373 1.55
 231  0.667  0.917  0.667- 515 1.55 366 1.55 320 1.55 374 1.55
 232  0.833  0.167  0.167- 375 1.55 516 1.55 329 1.55 367 1.55
 233  0.833  0.167  0.667- 517 1.55 368 1.55 330 1.55 376 1.55
 234  0.833  0.417  0.167- 377 1.55 331 1.55 518 1.55 369 1.55
 235  0.833  0.417  0.667- 332 1.55 370 1.55 519 1.55 378 1.55
 236  0.833  0.667  0.167- 371 1.55 520 1.55 333 1.55 379 1.55
 237  0.833  0.667  0.667- 521 1.55 334 1.55 380 1.55 372 1.55
 238  0.833  0.917  0.167- 373 1.55 327 1.55 522 1.55 381 1.55
 239  0.833  0.917  0.667- 523 1.55 374 1.55 382 1.55 328 1.55
 240  0.083  0.042  0.167- 296 1.55 288 1.55 524 1.55 335 1.55
 241  0.083  0.042  0.667- 525 1.55 297 1.55 336 1.55 289 1.55
 242  0.083  0.292  0.167- 298 1.55 290 1.55 526 1.55 337 1.55
 243  0.083  0.292  0.667- 527 1.55 299 1.55 338 1.55 291 1.55
 244  0.083  0.542  0.167- 300 1.55 528 1.55 339 1.55 292 1.55
 245  0.084  0.542  0.667- 529 1.55 340 1.55 293 1.55 301 1.55
 246  0.083  0.792  0.167- 302 1.55 530 1.55 341 1.55 294 1.55
 247  0.083  0.792  0.667- 531 1.55 342 1.55 295 1.55 303 1.55
 248  0.250  0.042  0.167- 343 1.55 532 1.55 304 1.55 296 1.55
 249  0.250  0.042  0.667- 533 1.55 305 1.55 344 1.55 297 1.55
 250  0.250  0.292  0.167- 298 1.55 534 1.55 306 1.55 345 1.55
 251  0.250  0.292  0.667- 307 1.55 346 1.55 535 1.55 299 1.55
 252  0.250  0.542  0.167- 536 1.55 308 1.55 347 1.55 300 1.55
 253  0.251  0.542  0.666- 348 1.54 537 1.55 301 1.55 309 1.56
 254  0.250  0.792  0.167- 538 1.55 310 1.55 349 1.55 302 1.55
 255  0.250  0.792  0.667- 539 1.55 303 1.55 311 1.55 350 1.55
 256  0.417  0.042  0.167- 351 1.55 304 1.55 540 1.55 312 1.55
 257  0.417  0.042  0.667- 541 1.55 305 1.55 352 1.55 313 1.55
 258  0.417  0.292  0.167- 542 1.55 353 1.55 306 1.55 314 1.55
 259  0.417  0.292  0.666- 315 1.54 543 1.55 307 1.55 354 1.56
 260  0.417  0.542  0.167- 316 1.55 544 1.55 308 1.55 355 1.55
 261  0.419  0.541  0.669- 576 1.48 545 1.54 309 1.56 356 1.56
 262  0.417  0.792  0.167- 357 1.55 546 1.55 310 1.55 317 1.55
 263  0.417  0.792  0.667- 318 1.55 311 1.55 547 1.55 358 1.55
 264  0.583  0.042  0.167- 359 1.55 319 1.55 548 1.55 312 1.55
 265  0.583  0.042  0.667- 549 1.55 320 1.55 360 1.55 313 1.55
 266  0.583  0.292  0.167- 550 1.55 361 1.55 321 1.55 314 1.55
 267  0.583  0.292  0.666- 315 1.54 551 1.55 322 1.55 362 1.56
 268  0.583  0.542  0.167- 316 1.55 552 1.55 323 1.55 363 1.55
 269  0.581  0.541  0.669- 576 1.48 553 1.54 324 1.56 364 1.56
 270  0.583  0.792  0.167- 365 1.55 554 1.55 325 1.55 317 1.55
 271  0.583  0.792  0.667- 318 1.55 326 1.55 555 1.55 366 1.55
 272  0.750  0.042  0.167- 367 1.55 556 1.55 319 1.55 327 1.55
 273  0.750  0.042  0.667- 557 1.55 320 1.55 368 1.55 328 1.55
 274  0.750  0.292  0.167- 329 1.55 558 1.55 321 1.55 369 1.55
 275  0.750  0.292  0.667- 322 1.55 370 1.55 559 1.55 330 1.55
 276  0.750  0.542  0.167- 560 1.55 323 1.55 371 1.55 331 1.55
 277  0.749  0.542  0.666- 372 1.54 561 1.55 332 1.55 324 1.56
 278  0.750  0.792  0.167- 562 1.55 325 1.55 373 1.55 333 1.55
 279  0.750  0.792  0.667- 563 1.55 334 1.55 326 1.55 374 1.55
 280  0.917  0.042  0.167- 327 1.55 288 1.55 564 1.55 375 1.55
 281  0.917  0.042  0.667- 565 1.55 328 1.55 376 1.55 289 1.55
 282  0.917  0.292  0.167- 329 1.55 290 1.55 566 1.55 377 1.55
 283  0.917  0.292  0.667- 567 1.55 330 1.55 378 1.55 291 1.55
 284  0.917  0.542  0.167- 331 1.55 568 1.55 379 1.55 292 1.55
 285  0.916  0.542  0.667- 569 1.55 380 1.55 293 1.55 332 1.55
 286  0.917  0.792  0.167- 333 1.55 570 1.55 381 1.55 294 1.55
 287  0.917  0.792  0.667- 571 1.55 382 1.55 295 1.55 334 1.55
 288  0.000  1.000  0.125-   1 1.55 280 1.55 240 1.55 198 1.55
 289  0.000  1.000  0.625-   2 1.55 199 1.55 281 1.55 241 1.55
 290  0.000  0.250  0.125-   3 1.55 282 1.55 242 1.55 192 1.55
 291  0.000  0.250  0.625-   4 1.55 193 1.55 283 1.55 243 1.55
 292  0.000  0.500  0.125-   5 1.55 194 1.55 284 1.55 244 1.55
 293  0.000  0.500  0.625-   6 1.55 195 1.55 285 1.55 245 1.55
 294  0.000  0.750  0.125-   7 1.55 196 1.55 286 1.55 246 1.55
 295  0.000  0.750  0.625-   8 1.55 197 1.55 287 1.55 247 1.55
 296  0.167  0.000  0.125-   9 1.55 240 1.55 206 1.55 248 1.55
 297  0.167  0.000  0.625-  10 1.55 241 1.55 207 1.55 249 1.55
 298  0.167  0.250  0.125- 250 1.55  11 1.55 242 1.55 200 1.55
 299  0.167  0.250  0.625-  12 1.55 243 1.55 201 1.55 251 1.55
 300  0.167  0.500  0.125-  13 1.55 244 1.55 202 1.55 252 1.55
 301  0.167  0.500  0.625- 203 1.55  14 1.55 245 1.55 253 1.55
 302  0.167  0.750  0.125- 246 1.55  15 1.55 254 1.55 204 1.55
 303  0.167  0.750  0.625-  16 1.55 255 1.55 205 1.55 247 1.55
 304  0.333  0.000  0.125- 214 1.55  17 1.55 256 1.55 248 1.55
 305  0.333  0.000  0.625-  18 1.55 249 1.55 257 1.55 215 1.55
 306  0.333  0.250  0.125-  19 1.55 208 1.55 258 1.55 250 1.55
 307  0.333  0.250  0.625- 251 1.55  20 1.55 209 1.55 259 1.55
 308  0.333  0.500  0.125-  21 1.54 252 1.55 210 1.55 260 1.55
 309  0.335  0.500  0.625- 211 1.54  22 1.55 261 1.56 253 1.56
 310  0.333  0.750  0.125-  23 1.55 254 1.55 262 1.55 212 1.55
 311  0.334  0.750  0.625- 263 1.55  24 1.55 255 1.55 213 1.55
 312  0.500  0.000  0.125- 222 1.55  25 1.55 264 1.55 256 1.55
 313  0.500  0.000  0.625-  26 1.55 223 1.55 265 1.55 257 1.55
 314  0.500  0.250  0.125-  27 1.54 216 1.55 266 1.55 258 1.55
 315  0.500  0.250  0.625- 267 1.54 259 1.54  28 1.55 217 1.55
 316  0.500  0.500  0.125-  29 1.54 268 1.55 260 1.55 218 1.55
 317  0.500  0.750  0.125- 220 1.54  30 1.54 270 1.55 262 1.55
 318  0.500  0.750  0.625- 271 1.55 263 1.55  31 1.55 221 1.55
 319  0.667  0.000  0.125- 230 1.55  32 1.55 264 1.55 272 1.55
 320  0.667  0.000  0.625-  33 1.55 273 1.55 265 1.55 231 1.55
 321  0.667  0.250  0.125-  34 1.55 224 1.55 266 1.55 274 1.55
 322  0.667  0.250  0.625- 275 1.55  35 1.55 225 1.55 267 1.55
 323  0.667  0.500  0.125-  36 1.54 276 1.55 226 1.55 268 1.55
 324  0.665  0.500  0.625- 227 1.54  37 1.55 269 1.56 277 1.56
 325  0.667  0.750  0.125-  38 1.55 278 1.55 270 1.55 228 1.55
 326  0.666  0.750  0.625- 271 1.55  39 1.55 279 1.55 229 1.55
 327  0.833  0.000  0.125-  40 1.55 280 1.55 238 1.55 272 1.55
 328  0.833  0.000  0.625-  41 1.55 281 1.55 239 1.55 273 1.55
 329  0.833  0.250  0.125- 274 1.55  42 1.55 282 1.55 232 1.55
 330  0.833  0.250  0.625-  43 1.55 283 1.55 233 1.55 275 1.55
 331  0.833  0.500  0.125-  44 1.55 284 1.55 234 1.55 276 1.55
 332  0.833  0.500  0.625- 235 1.55  45 1.55 285 1.55 277 1.55
 333  0.833  0.750  0.125- 286 1.55  46 1.55 278 1.55 236 1.55
 334  0.833  0.750  0.625-  47 1.55 279 1.55 237 1.55 287 1.55
 335  0.083  0.125  0.125- 200 1.55  48 1.55 192 1.55 240 1.55
 336  0.083  0.125  0.625-  49 1.55 193 1.55 241 1.55 201 1.55
 337  0.083  0.375  0.125- 202 1.55 194 1.55  50 1.55 242 1.55
 338  0.083  0.375  0.625-  51 1.55 243 1.55 195 1.55 203 1.55
 339  0.083  0.625  0.125- 196 1.55 244 1.55  52 1.55 204 1.55
 340  0.083  0.625  0.625-  53 1.55 245 1.55 205 1.55 197 1.55
 341  0.083  0.875  0.125- 198 1.55  54 1.55 246 1.55 206 1.55
 342  0.083  0.875  0.625-  55 1.55 199 1.55 247 1.55 207 1.55
 343  0.250  0.125  0.125- 248 1.55  56 1.55 208 1.55 200 1.55
 344  0.250  0.125  0.625- 201 1.55  57 1.55 249 1.55 209 1.55
 345  0.250  0.375  0.125- 210 1.54  58 1.54 202 1.55 250 1.55
 346  0.250  0.375  0.625-  59 1.55 251 1.55 203 1.55 211 1.55
 347  0.250  0.625  0.125-  60 1.54 204 1.55 252 1.55 212 1.55
 348  0.250  0.625  0.625- 253 1.54 213 1.55  61 1.55 205 1.55
 349  0.250  0.875  0.125-  62 1.55 206 1.55 254 1.55 214 1.55
 350  0.250  0.875  0.625-  63 1.55 207 1.55 215 1.55 255 1.55
 351  0.417  0.125  0.125- 256 1.55  64 1.55 216 1.55 208 1.55
 352  0.417  0.125  0.625-  65 1.55 209 1.55 217 1.55 257 1.55
 353  0.417  0.375  0.125-  66 1.54 258 1.55 210 1.55 218 1.55
 354  0.417  0.376  0.624- 211 1.54  67 1.55 259 1.56 219 1.56
 355  0.417  0.625  0.125-  68 1.54 212 1.55 220 1.55 260 1.55
 356  0.418  0.625  0.625- 221 1.54  69 1.55 213 1.55 261 1.56
 357  0.417  0.875  0.125- 262 1.55  70 1.55 214 1.55 222 1.55
 358  0.417  0.875  0.625- 215 1.55  71 1.55 223 1.55 263 1.55
 359  0.583  0.125  0.125- 264 1.55  72 1.55 216 1.55 224 1.55
 360  0.583  0.125  0.625-  73 1.55 225 1.55 217 1.55 265 1.55
 361  0.583  0.375  0.125-  74 1.54 266 1.55 226 1.55 218 1.55
 362  0.583  0.376  0.624- 227 1.54  75 1.55 267 1.56 219 1.56
 363  0.583  0.625  0.125-  76 1.54 228 1.55 220 1.55 268 1.55
 364  0.582  0.625  0.625- 221 1.54  77 1.55 229 1.55 269 1.56
 365  0.583  0.875  0.125- 270 1.55  78 1.55 230 1.55 222 1.55
 366  0.583  0.875  0.625- 231 1.55  79 1.55 223 1.55 271 1.55
 367  0.750  0.125  0.125- 272 1.55  80 1.55 224 1.55 232 1.55
 368  0.750  0.125  0.625- 233 1.55  81 1.55 273 1.55 225 1.55
 369  0.750  0.375  0.125- 226 1.54  82 1.54 234 1.55 274 1.55
 370  0.750  0.375  0.625-  83 1.55 275 1.55 235 1.55 227 1.55
 371  0.750  0.625  0.125-  84 1.54 236 1.55 276 1.55 228 1.55
 372  0.750  0.625  0.625- 277 1.54 229 1.55  85 1.55 237 1.55
 373  0.750  0.875  0.125-  86 1.55 238 1.55 278 1.55 230 1.55
 374  0.750  0.875  0.625-  87 1.55 239 1.55 231 1.55 279 1.55
 375  0.917  0.125  0.125- 232 1.55  88 1.55 192 1.55 280 1.55
 376  0.917  0.125  0.625-  89 1.55 193 1.55 281 1.55 233 1.55
 377  0.917  0.375  0.125- 234 1.55 194 1.55  90 1.55 282 1.55
 378  0.917  0.375  0.625-  91 1.55 283 1.55 195 1.55 235 1.55
 379  0.917  0.625  0.125- 196 1.55 284 1.55  92 1.55 236 1.55
 380  0.917  0.625  0.625-  93 1.55 285 1.55 237 1.55 197 1.55
 381  0.917  0.875  0.125- 198 1.55  94 1.55 286 1.55 238 1.55
 382  0.917  0.875  0.625-  95 1.55 199 1.55 287 1.55 239 1.55
 383  0.000  0.083  0.458-  89 1.55  49 1.55   2 1.55  96 1.55
 384  0.000  0.083  0.958-  97 1.55  88 1.55  48 1.55   1 1.55
 385  0.000  0.333  0.458-  91 1.55  51 1.55   4 1.55  98 1.55
 386  0.000  0.333  0.958-  90 1.55  50 1.55  99 1.55   3 1.55
 387  0.000  0.583  0.458- 100 1.55   6 1.55  93 1.55  53 1.55
 388  0.000  0.583  0.958-   5 1.55  92 1.55  52 1.55 101 1.55
 389  0.000  0.833  0.458-  95 1.55  55 1.55 102 1.55   8 1.55
 390  0.000  0.833  0.958- 103 1.55  94 1.55  54 1.55   7 1.55
 391  0.167  0.083  0.458-  10 1.54  57 1.55  49 1.55 104 1.55
 392  0.167  0.083  0.958- 105 1.55  56 1.55   9 1.55  48 1.55
 393  0.167  0.333  0.458- 106 1.55  51 1.55  59 1.55  12 1.55
 394  0.167  0.333  0.958-  58 1.54 107 1.55  50 1.55  11 1.55
 395  0.167  0.583  0.458- 108 1.55  14 1.55  53 1.55  61 1.55
 396  0.167  0.583  0.958-  13 1.55  52 1.55  60 1.55 109 1.55
 397  0.167  0.833  0.458-  55 1.55 110 1.55  63 1.55  16 1.55
 398  0.167  0.833  0.958- 111 1.55  54 1.55  15 1.55  62 1.55
 399  0.333  0.083  0.458-  18 1.54 112 1.55  57 1.55  65 1.55
 400  0.333  0.083  0.958- 113 1.55  17 1.55  56 1.55  64 1.55
 401  0.333  0.332  0.458-  20 1.54  59 1.55 114 1.55  67 1.55
 402  0.333  0.333  0.958- 115 1.55  19 1.55  58 1.55  66 1.55
 403  0.334  0.583  0.458- 116 1.54  69 1.55  61 1.55  22 1.55
 404  0.333  0.583  0.959- 117 1.54  60 1.54  21 1.55  68 1.55
 405  0.333  0.834  0.458-  24 1.54  63 1.54 118 1.55  71 1.55
 406  0.333  0.833  0.958- 119 1.55  62 1.55  23 1.55  70 1.55
 407  0.500  0.083  0.458-  26 1.54  73 1.55  65 1.55 120 1.55
 408  0.500  0.083  0.958- 121 1.55  25 1.55  72 1.55  64 1.55
 409  0.500  0.333  0.458-  28 1.54 122 1.54  75 1.55  67 1.55
 410  0.500  0.333  0.959- 123 1.54  27 1.54  74 1.55  66 1.55
 411  0.500  0.583  0.959- 125 1.54  76 1.55  68 1.55  29 1.55
 412  0.500  0.834  0.458-  31 1.54  79 1.55  71 1.55 126 1.55
 413  0.500  0.833  0.958- 127 1.55  30 1.55  78 1.55  70 1.55
 414  0.667  0.083  0.458-  33 1.54 128 1.55  81 1.55  73 1.55
 415  0.667  0.083  0.958- 129 1.55  32 1.55  80 1.55  72 1.55
 416  0.667  0.332  0.458-  35 1.54  83 1.55 130 1.55  75 1.55
 417  0.667  0.333  0.958- 131 1.55  34 1.55  82 1.55  74 1.55
 418  0.666  0.583  0.458- 132 1.54  77 1.55  85 1.55  37 1.55
 419  0.667  0.583  0.959- 133 1.54  84 1.54  36 1.55  76 1.55
 420  0.667  0.834  0.458-  39 1.54  87 1.54 134 1.55  79 1.55
 421  0.667  0.833  0.958- 135 1.55  86 1.55  38 1.55  78 1.55
 422  0.833  0.083  0.458-  41 1.54  81 1.55  89 1.55 136 1.55
 423  0.833  0.083  0.958- 137 1.55  80 1.55  40 1.55  88 1.55
 424  0.833  0.333  0.458- 138 1.55  91 1.55  83 1.55  43 1.55
 425  0.833  0.333  0.958-  82 1.54 139 1.55  90 1.55  42 1.55
 426  0.833  0.583  0.458- 140 1.55  45 1.55  93 1.55  85 1.55
 427  0.833  0.583  0.958-  44 1.55  92 1.55  84 1.55 141 1.55
 428  0.833  0.833  0.458-  95 1.55 142 1.55  87 1.55  47 1.55
 429  0.833  0.833  0.958- 143 1.55  46 1.55  94 1.55  86 1.55
 430  0.083  0.208  0.458-  12 1.55   4 1.55  49 1.55 144 1.55
 431  0.083  0.208  0.958-  11 1.55 145 1.55   3 1.55  48 1.55
 432  0.083  0.458  0.458-   6 1.55  14 1.55  51 1.55 146 1.55
 433  0.083  0.458  0.958- 147 1.55  50 1.55  13 1.55   5 1.55
 434  0.083  0.708  0.458- 148 1.55  16 1.55  53 1.55   8 1.55
 435  0.083  0.708  0.958-  52 1.55 149 1.55  15 1.55   7 1.55
 436  0.083  0.958  0.458-  10 1.55  55 1.55   2 1.55 150 1.55
 437  0.083  0.958  0.958- 151 1.55   9 1.55  54 1.55   1 1.55
 438  0.250  0.208  0.458-  20 1.54  57 1.54  12 1.55 152 1.55
 439  0.250  0.208  0.958- 153 1.55  19 1.55  56 1.55  11 1.55
 440  0.250  0.458  0.458-  14 1.54 154 1.55  59 1.55  22 1.57
 441  0.250  0.458  0.958- 155 1.55  13 1.55  58 1.55  21 1.55
 442  0.250  0.708  0.458- 156 1.55  16 1.55  24 1.55  61 1.55
 443  0.250  0.708  0.958-  15 1.55 157 1.55  23 1.55  60 1.55
 444  0.250  0.958  0.458-  63 1.54  10 1.55 158 1.55  18 1.55
 445  0.250  0.958  0.958- 159 1.55   9 1.55  62 1.55  17 1.55
 446  0.417  0.208  0.458-  65 1.54 160 1.55  20 1.55  28 1.55
 447  0.417  0.208  0.958-  64 1.55  19 1.55  27 1.55 161 1.55
 448  0.417  0.458  0.959- 163 1.54  21 1.55  66 1.55  29 1.55
 449  0.416  0.709  0.459-  24 1.54  69 1.54  31 1.55 164 1.55
 450  0.417  0.708  0.958- 165 1.55  23 1.55  30 1.55  68 1.55
 451  0.417  0.958  0.458-  71 1.54  18 1.55  26 1.55 166 1.55
 452  0.417  0.958  0.958-  70 1.55 167 1.55  17 1.55  25 1.55
 453  0.583  0.208  0.458-  73 1.54 168 1.55  35 1.55  28 1.55
 454  0.583  0.208  0.958-  72 1.55  34 1.55  27 1.55 169 1.55
 455  0.583  0.458  0.959- 171 1.54  36 1.55  74 1.55  29 1.55
 456  0.584  0.709  0.459-  39 1.54  77 1.54  31 1.55 172 1.55
 457  0.583  0.708  0.958- 173 1.55  38 1.55  30 1.55  76 1.55
 458  0.583  0.958  0.458-  79 1.54  33 1.55  26 1.55 174 1.55
 459  0.583  0.958  0.958-  78 1.55 175 1.55  32 1.55  25 1.55
 460  0.750  0.208  0.458-  35 1.54  81 1.54  43 1.55 176 1.55
 461  0.750  0.208  0.958- 177 1.55  34 1.55  80 1.55  42 1.55
 462  0.750  0.458  0.458-  45 1.54 178 1.55  83 1.55  37 1.57
 463  0.750  0.458  0.958- 179 1.55  44 1.55  82 1.55  36 1.55
 464  0.750  0.708  0.458- 180 1.55  47 1.55  39 1.55  85 1.55
 465  0.750  0.708  0.958-  46 1.55 181 1.55  38 1.55  84 1.55
 466  0.750  0.958  0.458-  87 1.54  41 1.55 182 1.55  33 1.55
 467  0.750  0.958  0.958- 183 1.55  40 1.55  86 1.55  32 1.55
 468  0.917  0.208  0.458-  43 1.55   4 1.55  89 1.55 184 1.55
 469  0.917  0.208  0.958-  42 1.55 185 1.55   3 1.55  88 1.55
 470  0.917  0.458  0.458-   6 1.55  45 1.55  91 1.55 186 1.55
 471  0.917  0.458  0.958- 187 1.55  90 1.55  44 1.55   5 1.55
 472  0.917  0.708  0.458- 188 1.55  47 1.55  93 1.55   8 1.55
 473  0.917  0.708  0.958-  92 1.55 189 1.55  46 1.55   7 1.55
 474  0.917  0.958  0.458-  41 1.55  95 1.55   2 1.55 190 1.55
 475  0.917  0.958  0.958- 191 1.55  40 1.55  94 1.55   1 1.55
 476  0.000  0.167  0.292- 192 1.55 184 1.55 144 1.55  96 1.55
 477  0.000  0.167  0.792- 193 1.55 185 1.55 145 1.55  97 1.55
 478  0.000  0.417  0.292- 194 1.55  98 1.55 186 1.55 146 1.55
 479  0.000  0.417  0.792- 195 1.55  99 1.55 187 1.55 147 1.55
 480  0.000  0.667  0.292- 196 1.55 100 1.55 188 1.55 148 1.55
 481  0.000  0.667  0.792- 197 1.55 101 1.55 189 1.55 149 1.55
 482  0.000  0.917  0.292- 198 1.55 102 1.55 190 1.55 150 1.55
 483  0.000  0.917  0.792- 199 1.55 103 1.55 191 1.55 151 1.55
 484  0.167  0.167  0.292- 152 1.55 104 1.55 144 1.55 200 1.55
 485  0.167  0.167  0.792- 201 1.55 145 1.55 153 1.55 105 1.55
 486  0.167  0.417  0.292- 146 1.55 106 1.55 202 1.55 154 1.55
 487  0.167  0.417  0.792- 203 1.55 107 1.55 147 1.55 155 1.55
 488  0.167  0.667  0.292- 204 1.55 148 1.55 156 1.55 108 1.55
 489  0.167  0.667  0.792- 205 1.55 109 1.55 157 1.55 149 1.55
 490  0.167  0.917  0.292- 150 1.55 206 1.55 110 1.55 158 1.55
 491  0.167  0.917  0.792- 207 1.55 151 1.55 111 1.55 159 1.55
 492  0.333  0.167  0.292- 112 1.55 208 1.55 160 1.55 152 1.55
 493  0.333  0.167  0.792- 209 1.55 161 1.55 153 1.55 113 1.55
 494  0.333  0.416  0.290- 210 1.54 154 1.55 114 1.55 162 1.55
 495  0.333  0.417  0.792- 115 1.55 155 1.55 163 1.55 211 1.55
 496  0.333  0.667  0.292- 212 1.55 156 1.55 164 1.55 116 1.55
 497  0.333  0.667  0.792- 165 1.55 117 1.55 157 1.55 213 1.55
 498  0.333  0.917  0.292- 118 1.54 158 1.55 214 1.55 166 1.55
 499  0.333  0.917  0.792- 215 1.55 159 1.55 119 1.55 167 1.55
 500  0.500  0.167  0.292- 120 1.55 216 1.55 168 1.55 160 1.55
 501  0.500  0.167  0.792- 217 1.55 169 1.55 161 1.55 121 1.55
 502  0.500  0.417  0.292- 218 1.54 122 1.54 170 1.55 162 1.55
 503  0.500  0.416  0.793- 123 1.54 219 1.54 171 1.55 163 1.55
 504  0.500  0.667  0.291- 220 1.54 124 1.54 172 1.55 164 1.55
 505  0.500  0.667  0.792- 173 1.55 165 1.55 125 1.55 221 1.55
 506  0.500  0.917  0.292- 126 1.55 222 1.55 174 1.55 166 1.55
 507  0.500  0.917  0.792- 223 1.55 127 1.55 175 1.55 167 1.55
 508  0.667  0.167  0.292- 128 1.55 224 1.55 168 1.55 176 1.55
 509  0.667  0.167  0.792- 225 1.55 169 1.55 177 1.55 129 1.55
 510  0.667  0.416  0.290- 226 1.54 178 1.55 130 1.55 170 1.55
 511  0.667  0.417  0.792- 131 1.55 179 1.55 171 1.55 227 1.55
 512  0.667  0.667  0.292- 228 1.55 180 1.55 172 1.55 132 1.55
 513  0.667  0.667  0.792- 173 1.55 133 1.55 181 1.55 229 1.55
 514  0.667  0.917  0.292- 134 1.54 182 1.55 230 1.55 174 1.55
 515  0.667  0.917  0.792- 231 1.55 183 1.55 135 1.55 175 1.55
 516  0.833  0.167  0.292- 176 1.55 136 1.55 184 1.55 232 1.55
 517  0.833  0.167  0.792- 233 1.55 185 1.55 177 1.55 137 1.55
 518  0.833  0.417  0.292- 186 1.55 138 1.55 234 1.55 178 1.55
 519  0.833  0.417  0.792- 235 1.55 139 1.55 187 1.55 179 1.55
 520  0.833  0.667  0.292- 236 1.55 188 1.55 180 1.55 140 1.55
 521  0.833  0.667  0.792- 237 1.55 141 1.55 181 1.55 189 1.55
 522  0.833  0.917  0.292- 190 1.55 238 1.55 142 1.55 182 1.55
 523  0.833  0.917  0.792- 239 1.55 191 1.55 143 1.55 183 1.55
 524  0.083  0.042  0.292- 104 1.55 240 1.55 150 1.55  96 1.55
 525  0.083  0.042  0.792- 241 1.55 105 1.55  97 1.55 151 1.55
 526  0.083  0.292  0.292- 242 1.55 144 1.55 106 1.55  98 1.55
 527  0.083  0.292  0.792- 243 1.55 107 1.55 145 1.55  99 1.55
 528  0.083  0.542  0.292- 244 1.55 146 1.55 100 1.55 108 1.55
 529  0.083  0.542  0.792- 245 1.55 147 1.55 109 1.55 101 1.55
 530  0.083  0.792  0.292- 246 1.55 110 1.55 102 1.55 148 1.55
 531  0.083  0.792  0.792- 247 1.55 111 1.55 149 1.55 103 1.55
 532  0.250  0.042  0.292- 158 1.55 248 1.55 104 1.55 112 1.55
 533  0.250  0.042  0.792- 249 1.55 105 1.55 113 1.55 159 1.55
 534  0.250  0.292  0.292- 114 1.55 250 1.55 152 1.55 106 1.55
 535  0.250  0.292  0.792- 251 1.55 107 1.55 115 1.55 153 1.55
 536  0.250  0.542  0.292- 252 1.55 108 1.55 154 1.55 116 1.55
 537  0.250  0.542  0.792- 155 1.55 117 1.55 109 1.55 253 1.55
 538  0.250  0.792  0.292- 110 1.55 254 1.55 118 1.55 156 1.55
 539  0.250  0.792  0.792- 255 1.55 111 1.55 157 1.55 119 1.55
 540  0.417  0.042  0.292- 166 1.55 256 1.55 112 1.55 120 1.55
 541  0.417  0.042  0.792- 257 1.55 113 1.55 167 1.55 121 1.55
 542  0.417  0.292  0.292- 258 1.55 160 1.55 114 1.55 122 1.55
 543  0.417  0.292  0.792- 115 1.55 123 1.55 161 1.55 259 1.55
 544  0.417  0.542  0.292- 116 1.54 260 1.55 124 1.55 162 1.56
 545  0.416  0.542  0.793- 117 1.54 261 1.54 125 1.55 163 1.55
 546  0.417  0.792  0.292- 164 1.54 118 1.55 262 1.55 126 1.55
 547  0.417  0.792  0.792- 119 1.55 263 1.55 127 1.55 165 1.55
 548  0.583  0.042  0.292- 174 1.55 264 1.55 128 1.55 120 1.55
 549  0.583  0.042  0.792- 265 1.55 129 1.55 175 1.55 121 1.55
 550  0.583  0.292  0.292- 266 1.55 168 1.55 130 1.55 122 1.55
 551  0.583  0.292  0.792- 131 1.55 123 1.55 169 1.55 267 1.55
 552  0.583  0.542  0.292- 132 1.54 268 1.55 124 1.55 170 1.56
 553  0.584  0.542  0.793- 133 1.54 269 1.54 125 1.55 171 1.55
 554  0.583  0.792  0.292- 172 1.54 134 1.55 270 1.55 126 1.55
 555  0.583  0.792  0.792- 135 1.55 271 1.55 127 1.55 173 1.55
 556  0.750  0.042  0.292- 182 1.55 272 1.55 136 1.55 128 1.55
 557  0.750  0.042  0.792- 273 1.55 137 1.55 129 1.55 183 1.55
 558  0.750  0.292  0.292- 130 1.55 274 1.55 176 1.55 138 1.55
 559  0.750  0.292  0.792- 275 1.55 139 1.55 131 1.55 177 1.55
 560  0.750  0.542  0.292- 276 1.55 140 1.55 178 1.55 132 1.55
 561  0.750  0.542  0.792- 179 1.55 133 1.55 141 1.55 277 1.55
 562  0.750  0.792  0.292- 142 1.55 278 1.55 134 1.55 180 1.55
 563  0.750  0.792  0.792- 279 1.55 143 1.55 181 1.55 135 1.55
 564  0.917  0.042  0.292- 136 1.55 280 1.55 190 1.55  96 1.55
 565  0.917  0.042  0.792- 281 1.55 137 1.55  97 1.55 191 1.55
 566  0.917  0.292  0.292- 282 1.55 184 1.55 138 1.55  98 1.55
 567  0.917  0.292  0.792- 283 1.55 139 1.55 185 1.55  99 1.55
 568  0.917  0.542  0.292- 284 1.55 186 1.55 100 1.55 140 1.55
 569  0.917  0.542  0.792- 285 1.55 187 1.55 141 1.55 101 1.55
 570  0.917  0.792  0.292- 286 1.55 142 1.55 102 1.55 188 1.55
 571  0.917  0.792  0.792- 287 1.55 143 1.55 189 1.55 103 1.55
 572  0.500  0.589  0.456- 573 1.09  77 1.52  69 1.52 124 1.52
 573  0.500  0.530  0.483- 572 1.09
 574  0.412  0.454  0.454-  67 1.49 162 1.49  22 1.51
 575  0.588  0.454  0.454-  75 1.49 170 1.49  37 1.51
 576  0.500  0.500  0.637- 269 1.48 261 1.48 219 1.48
 
  LATTYP: Found a simple monoclinic cell.
 ALAT       =    12.3703241348
 B/A-ratio  =     1.2248453018
 C/A-ratio  =     1.4141600350
 COS(beta)  =    -0.0000282295
  
  Lattice vectors:
  
 A1 = (   0.0000000000,  -0.0003492082,  12.3703241299)
 A2 = (  15.1517333984,   0.0000000000,   0.0000000000)
 A3 = (   0.0000000000,  17.4936180115,   0.0000000000)


Analysis of symmetry for initial positions (statically):
=====================================================================
 Subroutine PRICEL returns:
 Original cell was already a primitive cell.
 

 Routine SETGRP: Setting up the symmetry group for a 
 simple monoclinic supercell.


 Subroutine GETGRP returns: Found  2 space group operations
 (whereof  2 operations were pure point group operations)
 out of a pool of  4 trial point group operations.


The static configuration has the point symmetry C_1h.


Analysis of symmetry for dynamics (positions and initial velocities):
=====================================================================
 Subroutine PRICEL returns:
 Original cell was already a primitive cell.
 

 Routine SETGRP: Setting up the symmetry group for a 
 simple monoclinic supercell.


 Subroutine GETGRP returns: Found  2 space group operations
 (whereof  2 operations were pure point group operations)
 out of a pool of  4 trial point group operations.


The dynamic configuration has the point symmetry C_1h.


Analysis of structural, dynamic, and magnetic symmetry:
=====================================================================
 Subroutine PRICEL returns:
 Original cell was already a primitive cell.
 

 Routine SETGRP: Setting up the symmetry group for a 
 simple monoclinic supercell.


 Subroutine GETGRP returns: Found  2 space group operations
 (whereof  2 operations were pure point group operations)
 out of a pool of  4 trial point group operations.


The overall configuration has the point symmetry C_1h.


 Subroutine INISYM returns: Found  2 space group operations
 (whereof  2 operations are pure point group operations),
 and found     1 'primitive' translations


----------------------------------------------------------------------------------------

                                     Primitive cell                                     

  volume of cell :    3278.8612

  direct lattice vectors                    reciprocal lattice vectors
    15.151733398  0.000000000  0.000000000     0.065999049  0.000000000  0.000000000
     0.000000000 17.493618012  0.000000000     0.000000000  0.057163704  0.000001614
     0.000000000 -0.000349208 12.370324130     0.000000000  0.000000000  0.080838626

  length of vectors
    15.151733398 17.493618012 12.370324135     0.065999049  0.057163704  0.080838626

  position of ions in fractional coordinates (direct lattice)
     0.000000000  0.999989296  0.999988071
     0.000000000  0.999970100  0.500021916
     0.000000000  0.250001303  0.999935875
     0.000000000  0.249996417  0.499943781
     0.000000000  0.499982173  0.999982502
     0.000000000  0.499943129  0.499957765
     0.000000000  0.749956331  0.999999496
     0.000000000  0.749932546  0.500019108
     0.166643351  0.000013456  0.999992555
     0.166586411  0.000004299  0.500009322
     0.166631206  0.249993564  0.999913443
     0.166645345  0.249951367  0.499950611
     0.166676218  0.499988950  0.000035078
     0.166719346  0.499887351  0.499902736
     0.166662015  0.749993370  0.000040457
     0.166724713  0.749920951  0.500013466
     0.333326724  0.000058164  0.999969252
     0.333303646  0.000078001  0.499993022
     0.333318971  0.249997536  0.999958113
     0.333028835  0.249590225  0.499844613
     0.333286837  0.500026834  0.000319151
     0.335600795  0.499324843  0.499274388
     0.333334432  0.750057972  0.000081719
     0.333191886  0.750545530  0.499957786
     0.500000000  0.000061155  0.999968402
     0.500000000  0.000084580  0.499978302
     0.500000000  0.249951775  0.000129059
     0.500000000  0.250112134  0.499772768
     0.500000000  0.500012305  0.000439376
     0.500000000  0.750162801  0.999939833
     0.500000000  0.750516500  0.500014008
     0.666673306  0.000058164  0.999969252
     0.666696384  0.000078001  0.499993022
     0.666681059  0.249997536  0.999958113
     0.666971195  0.249590225  0.499844613
     0.666713193  0.500026834  0.000319151
     0.664399235  0.499324843  0.499274388
     0.666665598  0.750057972  0.000081719
     0.666808144  0.750545530  0.499957786
     0.833356634  0.000013456  0.999992555
     0.833413574  0.000004299  0.500009322
     0.833368779  0.249993564  0.999913443
     0.833354640  0.249951367  0.499950611
     0.833323767  0.499988950  0.000035078
     0.833280639  0.499887351  0.499902736
     0.833337970  0.749993370  0.000040457
     0.833275272  0.749920951  0.500013466
     0.083310386  0.125002192  0.999952714
     0.083296927  0.124989189  0.499985819
     0.083317065  0.374989013  0.999903684
     0.083357243  0.374982377  0.499929040
     0.083342465  0.624966280  0.000006244
     0.083449181  0.624929743  0.499980898
     0.083319551  0.874982758  0.000000970
     0.083318459  0.874951899  0.500017568
     0.249979029  0.125017772  0.999952103
     0.249861487  0.124877178  0.499960574
     0.249873870  0.374921908  0.999774944
     0.250173675  0.374903989  0.499903052
     0.249946236  0.625038137  0.000297373
     0.250548259  0.624717895  0.499909540
     0.249984014  0.875030175  0.000001112
     0.249918548  0.875164233  0.499999307
     0.416662881  0.125043074  0.999953649
     0.416663503  0.125019483  0.499941762
     0.416646089  0.374910585  0.000188230
     0.416648794  0.375336860  0.498917431
     0.416617304  0.625078334  0.000426933
     0.416947943  0.626333734  0.499389368
     0.416663484  0.875100974  0.999944413
     0.416621806  0.875225775  0.499996399
     0.583337089  0.125043074  0.999953649
     0.583336467  0.125019483  0.499941762
     0.583353881  0.374910585  0.000188230
     0.583351176  0.375336860  0.498917431
     0.583382666  0.625078334  0.000426933
     0.583052027  0.626333734  0.499389368
     0.583336486  0.875100974  0.999944413
     0.583378164  0.875225775  0.499996399
     0.750020971  0.125017772  0.999952103
     0.750138513  0.124877178  0.499960574
     0.750126130  0.374921908  0.999774944
     0.749826325  0.374903989  0.499903052
     0.750053764  0.625038137  0.000297373
     0.749451741  0.624717895  0.499909540
     0.750015986  0.875030175  0.000001112
     0.750081452  0.875164233  0.499999307
     0.916689637  0.125002192  0.999952714
     0.916703096  0.124989189  0.499985819
     0.916682958  0.374989013  0.999903684
     0.916642780  0.374982377  0.499929040
     0.916657558  0.624966280  0.000006244
     0.916550842  0.624929743  0.499980898
     0.916680472  0.874982758  0.000000970
     0.916681564  0.874951899  0.500017568
     0.000000000  0.083323796  0.333328845
     0.000000000  0.083340408  0.833306605
     0.000000000  0.333334367  0.333294333
     0.000000000  0.333343349  0.833245681
     0.000000000  0.583291251  0.333361651
     0.000000000  0.583292570  0.833280000
     0.000000000  0.833297467  0.333362335
     0.000000000  0.833285953  0.833325224
     0.166614693  0.083316115  0.333304294
     0.166671086  0.083362123  0.833295582
     0.166737225  0.333328963  0.333289511
     0.166681852  0.333342230  0.833175319
     0.166835240  0.583277831  0.333396491
     0.166780882  0.583277662  0.833257845
     0.166669551  0.833338428  0.333345351
     0.166682456  0.833308806  0.833328214
     0.333286270  0.083347800  0.333294474
     0.333329479  0.083404225  0.833282912
     0.333312629  0.333154770  0.333154781
     0.333370765  0.333384571  0.833273499
     0.333710483  0.583256688  0.333516322
     0.333180737  0.583469209  0.834145026
     0.333263166  0.833527846  0.333300691
     0.333320451  0.833377645  0.833337437
     0.500000000  0.083355834  0.333313065
     0.500000000  0.083416957  0.833293106
     0.500000000  0.333316648  0.333307488
     0.500000000  0.333224438  0.833907241
     0.500000000  0.584654798  0.332836535
     0.500000000  0.583570695  0.834306383
     0.500000000  0.833525606  0.333306530
     0.500000000  0.833422906  0.833319677
     0.666713760  0.083347800  0.333294474
     0.666670551  0.083404225  0.833282912
     0.666687401  0.333154770  0.333154781
     0.666629265  0.333384571  0.833273499
     0.666289547  0.583256688  0.333516322
     0.666819293  0.583469209  0.834145026
     0.666736864  0.833527846  0.333300691
     0.666679579  0.833377645  0.833337437
     0.833385292  0.083316115  0.333304294
     0.833328899  0.083362123  0.833295582
     0.833262760  0.333328963  0.333289511
     0.833318133  0.333342230  0.833175319
     0.833164745  0.583277831  0.333396491
     0.833219103  0.583277662  0.833257845
     0.833330434  0.833338428  0.333345351
     0.833317529  0.833308806  0.833328214
     0.083341782  0.208336174  0.333303800
     0.083350351  0.208355634  0.833271886
     0.083376022  0.458304769  0.333320836
     0.083386721  0.458330480  0.833271994
     0.083370228  0.708298783  0.333397175
     0.083383750  0.708269282  0.833302221
     0.083329313  0.958316504  0.333351940
     0.083349129  0.958324340  0.833343001
     0.249921299  0.208242477  0.333297808
     0.250015333  0.208387955  0.833293605
     0.250197433  0.458272783  0.333271366
     0.250094078  0.458337862  0.833346191
     0.250072430  0.708343419  0.333423990
     0.250052095  0.708326078  0.833381325
     0.249948920  0.958407465  0.333347603
     0.249995297  0.958373620  0.833355884
     0.416636357  0.208298649  0.333297163
     0.416658766  0.208436034  0.833244239
     0.416615134  0.457779180  0.333896756
     0.416564917  0.458328580  0.834123458
     0.416592921  0.708734263  0.333207064
     0.416655607  0.708393015  0.833490992
     0.416632299  0.958428553  0.333313493
     0.416648743  0.958405998  0.833304834
     0.583363613  0.208298649  0.333297163
     0.583341204  0.208436034  0.833244239
     0.583384836  0.457779180  0.333896756
     0.583435053  0.458328580  0.834123458
     0.583407049  0.708734263  0.333207064
     0.583344363  0.708393015  0.833490992
     0.583367671  0.958428553  0.333313493
     0.583351227  0.958405998  0.833304834
     0.750078701  0.208242477  0.333297808
     0.749984667  0.208387955  0.833293605
     0.749802567  0.458272783  0.333271366
     0.749905922  0.458337862  0.833346191
     0.749927570  0.708343419  0.333423990
     0.749947905  0.708326078  0.833381325
     0.750051080  0.958407465  0.333347603
     0.750004703  0.958373620  0.833355884
     0.916658241  0.208336174  0.333303800
     0.916649672  0.208355634  0.833271886
     0.916624001  0.458304769  0.333320836
     0.916613302  0.458330480  0.833271994
     0.916629795  0.708298783  0.333397175
     0.916616273  0.708269282  0.833302221
     0.916670710  0.958316504  0.333351940
     0.916650894  0.958324340  0.833343001
     0.000000000  0.166670355  0.166617231
     0.000000000  0.166692234  0.666619720
     0.000000000  0.416652666  0.166611291
     0.000000000  0.416672762  0.666574346
     0.000000000  0.666641887  0.166699252
     0.000000000  0.666576535  0.666621845
     0.000000000  0.916652848  0.166669701
     0.000000000  0.916624044  0.666676040
     0.166615166  0.166653542  0.166608272
     0.166687840  0.166728225  0.666628634
     0.166644362  0.416629692  0.166584850
     0.166888207  0.416683918  0.666559417
     0.166675117  0.666671229  0.166807422
     0.166921852  0.666518743  0.666611285
     0.166642864  0.916686929  0.166668241
     0.166683972  0.916649046  0.666699398
     0.333298529  0.166663141  0.166628681
     0.333438785  0.166880154  0.666652538
     0.332989145  0.416410758  0.166162182
     0.333755232  0.416786271  0.666444871
     0.333350127  0.666733701  0.166857205
     0.333818207  0.666197778  0.666754535
     0.333307751  0.916769070  0.166627710
     0.333334371  0.916731793  0.666675376
     0.500000000  0.166659981  0.166668129
     0.500000000  0.166894912  0.666591442
     0.500000000  0.416519434  0.166842343
     0.500000000  0.418657526  0.668143877
     0.500000000  0.667147634  0.166321709
     0.500000000  0.666733724  0.666748493
     0.500000000  0.916772592  0.166612151
     0.500000000  0.916755060  0.666647221
     0.666701501  0.166663141  0.166628681
     0.666561245  0.166880154  0.666652538
     0.667010885  0.416410758  0.166162182
     0.666244798  0.416786271  0.666444871
     0.666649903  0.666733701  0.166857205
     0.666181823  0.666197778  0.666754535
     0.666692279  0.916769070  0.166627710
     0.666665659  0.916731793  0.666675376
     0.833384819  0.166653542  0.166608272
     0.833312145  0.166728225  0.666628634
     0.833355623  0.416629692  0.166584850
     0.833111778  0.416683918  0.666559417
     0.833324868  0.666671229  0.166807422
     0.833078133  0.666518743  0.666611285
     0.833357121  0.916686929  0.166668241
     0.833316013  0.916649046  0.666699398
     0.083318631  0.041664182  0.166638511
     0.083344238  0.041672930  0.666664136
     0.083337996  0.291665547  0.166602414
     0.083369926  0.291700203  0.666564865
     0.083367838  0.541648998  0.166698442
     0.083574092  0.541622762  0.666614098
     0.083340323  0.791654002  0.166686432
     0.083384129  0.791587685  0.666659286
     0.249965920  0.041694959  0.166610286
     0.250010616  0.041744088  0.666643266
     0.249932063  0.291601318  0.166514072
     0.250120277  0.291787185  0.666552358
     0.250057957  0.541656026  0.166831576
     0.251035704  0.541543014  0.666476632
     0.249992894  0.791715270  0.166675028
     0.250099102  0.791548216  0.666691820
     0.416643433  0.041714787  0.166624909
     0.416662630  0.041784417  0.666634090
     0.416640431  0.291597762  0.166665275
     0.417045096  0.292378434  0.666457040
     0.416697157  0.541624318  0.167176239
     0.418579569  0.540936930  0.668661766
     0.416643005  0.791857000  0.166577681
     0.416687289  0.791713722  0.666698888
     0.583356537  0.041714787  0.166624909
     0.583337340  0.041784417  0.666634090
     0.583359539  0.291597762  0.166665275
     0.582954874  0.292378434  0.666457040
     0.583302813  0.541624318  0.167176239
     0.581420401  0.540936930  0.668661766
     0.583356965  0.791857000  0.166577681
     0.583312681  0.791713722  0.666698888
     0.750034080  0.041694959  0.166610286
     0.749989384  0.041744088  0.666643266
     0.750067937  0.291601318  0.166514072
     0.749879723  0.291787185  0.666552358
     0.749942043  0.541656026  0.166831576
     0.748964296  0.541543014  0.666476632
     0.750007106  0.791715270  0.166675028
     0.749900898  0.791548216  0.666691820
     0.916681392  0.041664182  0.166638511
     0.916655785  0.041672930  0.666664136
     0.916662027  0.291665547  0.166602414
     0.916630097  0.291700203  0.666564865
     0.916632185  0.541648998  0.166698442
     0.916425931  0.541622762  0.666614098
     0.916659700  0.791654002  0.166686432
     0.916615894  0.791587685  0.666659286
     0.000000000  0.999987381  0.124971689
     0.000000000  0.999980889  0.625001526
     0.000000000  0.250010888  0.124922463
     0.000000000  0.250033832  0.624908650
     0.000000000  0.500008319  0.124984583
     0.000000000  0.499985769  0.624915958
     0.000000000  0.749979076  0.125003211
     0.000000000  0.749939275  0.624982072
     0.166635207  0.000011493  0.124961079
     0.166661192  0.000014697  0.624990501
     0.166637052  0.249977443  0.124886060
     0.166719591  0.250054089  0.624908549
     0.166695177  0.500004330  0.125018301
     0.167140434  0.499953105  0.624850545
     0.166656775  0.750004534  0.125027090
     0.166755356  0.749897833  0.624972856
     0.333317853  0.000056383  0.124936288
     0.333337780  0.000077962  0.624971758
     0.333322425  0.249972821  0.124905972
     0.333483689  0.250276411  0.624833181
     0.333322056  0.499959754  0.125115142
     0.335077696  0.499646349  0.624510542
     0.333334721  0.750071663  0.125025380
     0.333513504  0.749890190  0.624988040
     0.500000000  0.000059484  0.124945366
     0.500000000  0.000077202  0.624959453
     0.500000000  0.249937517  0.124997190
     0.500000000  0.250312732  0.624789907
     0.500000000  0.499953954  0.125312969
     0.500000000  0.750235522  0.124678352
     0.500000000  0.750130117  0.625017147
     0.666682177  0.000056383  0.124936288
     0.666662250  0.000077962  0.624971758
     0.666677605  0.249972821  0.124905972
     0.666516341  0.250276411  0.624833181
     0.666677974  0.499959754  0.125115142
     0.664922334  0.499646349  0.624510542
     0.666665309  0.750071663  0.125025380
     0.666486526  0.749890190  0.624988040
     0.833364778  0.000011493  0.124961079
     0.833338793  0.000014697  0.624990501
     0.833362933  0.249977443  0.124886060
     0.833280394  0.250054089  0.624908549
     0.833304808  0.500004330  0.125018301
     0.832859551  0.499953105  0.624850545
     0.833343210  0.750004534  0.125027090
     0.833244629  0.749897833  0.624972856
     0.083305232  0.124994024  0.124937130
     0.083333583  0.125021529  0.624967581
     0.083317040  0.375010273  0.124904563
     0.083405266  0.375047182  0.624897498
     0.083343324  0.624990773  0.125030721
     0.083457949  0.624931379  0.624944098
     0.083317164  0.874987315  0.124994013
     0.083344083  0.874950797  0.625002456
     0.249968523  0.125010521  0.124932859
     0.250028076  0.125093956  0.624957317
     0.249850540  0.374902201  0.124535239
     0.250219527  0.375080137  0.624846204
     0.249983664  0.625039429  0.125189229
     0.250471749  0.624796713  0.624888470
     0.249979452  0.875048004  0.124981321
     0.250028923  0.874989927  0.624999191
     0.416661098  0.125018580  0.124942973
     0.416700574  0.125136206  0.624940719
     0.416619038  0.374899827  0.124902224
     0.417084309  0.376178573  0.624325459
     0.416669843  0.625072158  0.125211318
     0.417679380  0.624592651  0.624702485
     0.416649616  0.875121986  0.124907030
     0.416657354  0.875081580  0.624996128
     0.583338872  0.125018580  0.124942973
     0.583299396  0.125136206  0.624940719
     0.583380932  0.374899827  0.124902224
     0.582915661  0.376178573  0.624325459
     0.583330127  0.625072158  0.125211318
     0.582320590  0.624592651  0.624702485
     0.583350354  0.875121986  0.124907030
     0.583342616  0.875081580  0.624996128
     0.750031477  0.125010521  0.124932859
     0.749971924  0.125093956  0.624957317
     0.750149460  0.374902201  0.124535239
     0.749780473  0.375080137  0.624846204
     0.750016336  0.625039429  0.125189229
     0.749528251  0.624796713  0.624888470
     0.750020548  0.875048004  0.124981321
     0.749971077  0.874989927  0.624999191
     0.916694791  0.124994024  0.124937130
     0.916666440  0.125021529  0.624967581
     0.916682983  0.375010273  0.124904563
     0.916594757  0.375047182  0.624897498
     0.916656699  0.624990773  0.125030721
     0.916542074  0.624931379  0.624944098
     0.916682859  0.874987315  0.124994013
     0.916655940  0.874950797  0.625002456
     0.000000000  0.083312436  0.458342819
     0.000000000  0.083328123  0.958285372
     0.000000000  0.333344588  0.458302745
     0.000000000  0.333343867  0.958229751
     0.000000000  0.583296771  0.458346316
     0.000000000  0.583314298  0.958298540
     0.000000000  0.833281305  0.458364243
     0.000000000  0.833298330  0.958318989
     0.166575438  0.083255193  0.458331805
     0.166651946  0.083344059  0.958276187
     0.166724252  0.333325280  0.458302533
     0.166615912  0.333316651  0.958091885
     0.166887964  0.583254365  0.458357666
     0.166701180  0.583320539  0.958336038
     0.166664608  0.833317418  0.458344535
     0.166657204  0.833322905  0.958318448
     0.333290989  0.083327358  0.458307256
     0.333327101  0.083373987  0.958261057
     0.333162179  0.332379355  0.458393901
     0.333320182  0.333318596  0.958229557
     0.334309285  0.583181885  0.458258809
     0.333185834  0.583438848  0.958809077
     0.333132964  0.833674926  0.458363199
     0.333322310  0.833383166  0.958313186
     0.500000000  0.083337170  0.458325088
     0.500000000  0.083379526  0.958277886
     0.500000000  0.333284295  0.458181105
     0.500000000  0.333198893  0.958576307
     0.500000000  0.583458778  0.958927892
     0.500000000  0.833639394  0.458362890
     0.500000000  0.833438333  0.958236654
     0.666709041  0.083327358  0.458307256
     0.666672929  0.083373987  0.958261057
     0.666837851  0.332379355  0.458393901
     0.666679848  0.333318596  0.958229557
     0.665690745  0.583181885  0.458258809
     0.666814196  0.583438848  0.958809077
     0.666867066  0.833674926  0.458363199
     0.666677720  0.833383166  0.958313186
     0.833424547  0.083255193  0.458331805
     0.833348039  0.083344059  0.958276187
     0.833275733  0.333325280  0.458302533
     0.833384073  0.333316651  0.958091885
     0.833112021  0.583254365  0.458357666
     0.833298805  0.583320539  0.958336038
     0.833335377  0.833317418  0.458344535
     0.833342781  0.833322905  0.958318448
     0.083326333  0.208327464  0.458311896
     0.083333231  0.208338422  0.958256254
     0.083313717  0.458346198  0.458340535
     0.083352142  0.458341413  0.958275807
     0.083370258  0.708286364  0.458372473
     0.083357629  0.708297739  0.958313300
     0.083319596  0.958289276  0.458358197
     0.083337159  0.958321588  0.958321027
     0.249854532  0.208028933  0.458341720
     0.249992404  0.208349751  0.958262392
     0.249955997  0.458426822  0.458445285
     0.250004069  0.458337098  0.958339046
     0.250122184  0.708308032  0.458391378
     0.249999843  0.708348620  0.958410046
     0.249915893  0.958426690  0.458365552
     0.249987008  0.958366845  0.958329845
     0.416626268  0.208234341  0.458294405
     0.416660129  0.208367442  0.958266767
     0.416597621  0.458311997  0.958792943
     0.416097890  0.709334897  0.458512474
     0.416645707  0.708397330  0.958452288
     0.416630453  0.958448768  0.458335015
     0.416651396  0.958398241  0.958272533
     0.583373702  0.208234341  0.458294405
     0.583339841  0.208367442  0.958266767
     0.583402349  0.458311997  0.958792943
     0.583902080  0.709334897  0.458512474
     0.583354263  0.708397330  0.958452288
     0.583369517  0.958448768  0.458335015
     0.583348574  0.958398241  0.958272533
     0.750145468  0.208028933  0.458341720
     0.750007596  0.208349751  0.958262392
     0.750044003  0.458426822  0.458445285
[...]
 196      -0.003     0.001     0.005       0.869
 197       0.005     0.001    -0.007       0.621
 198       0.002     0.000    -0.002       0.819
 199       0.003    -0.000    -0.003       1.012
 200       0.004    -0.003     0.005      -1.461
 201       0.005     0.004    -0.006       0.190
 202       0.015    -0.005     0.024      -0.839
 203       0.018     0.009    -0.020       0.431
 204       0.005     0.003    -0.007       0.349
 205       0.002    -0.001    -0.020       0.168
 206       0.002     0.001    -0.003       0.266
 207       0.003     0.001    -0.004       0.412
 208       0.002     0.000    -0.013       0.141
 209       0.008    -0.008     0.010      -1.628
 210      -0.220    -0.211    -0.360      -0.024
 211       0.087    -0.003     0.101      -0.887
 212      -0.012     0.009     0.012       1.740
 213       0.006     0.003    -0.034       0.104
 214       0.004     0.002    -0.005       0.325
 215       0.004     0.003    -0.006       0.152
 216       0.009    -0.006     0.011      -1.333
 217       0.011    -0.009     0.011      -1.751
 218       0.086     0.051     0.110      -0.319
 219       0.103    -0.025     0.124      -1.036
 220       0.012     0.011    -0.017       0.061
 221       0.017     0.016    -0.028       0.020
 222       0.005     0.002    -0.006       0.428
 223       0.005     0.003    -0.007       0.220
 224       0.002     0.000    -0.013       0.141
 225       0.008    -0.008     0.010      -1.628
 226      -0.220    -0.211    -0.360      -0.024
 227       0.087    -0.003     0.101      -0.887
 228      -0.012     0.009     0.012       1.740
 229       0.006     0.003    -0.034       0.104
 230       0.004     0.002    -0.005       0.325
 231       0.004     0.003    -0.006       0.152
 232       0.004    -0.003     0.005      -1.461
 233       0.005     0.004    -0.006       0.190
 234       0.015    -0.005     0.024      -0.839
 235       0.018     0.009    -0.020       0.431
 236       0.005     0.003    -0.007       0.349
 237       0.002    -0.001    -0.020       0.168
 238       0.002     0.001    -0.003       0.266
 239       0.003     0.001    -0.004       0.412
 240      -0.002     0.001     0.003       1.113
 241       0.003     0.000    -0.003       0.854
 242      -0.004     0.004     0.009       0.896
 243      -0.007     0.004     0.009       1.325
 244      -0.008     0.003     0.010       1.064
 245      -0.010     0.006     0.014       1.113
 246      -0.002     0.000     0.002       1.152
 247       0.003    -0.000    -0.004       0.801
 248       0.003     0.002    -0.005       0.163
 249       0.003     0.003    -0.005       0.114
 250       0.019    -0.003     0.022      -1.024
 251       0.017     0.014    -0.017       0.179
 252       0.016     0.012    -0.020       0.234
 253       0.056     0.018     0.066      -0.582
 254       0.004     0.003    -0.005       0.191
 255       0.004     0.003    -0.008       0.122
 256       0.004     0.002    -0.007       0.356
 257       0.005     0.004    -0.007       0.205
 258       0.021    -0.013     0.023      -1.473
 259      -0.029     0.025     0.030       1.778
 260      -0.032     0.025     0.032       1.753
 261      -0.065    -0.010    -0.159      -0.348
 262       0.006     0.003    -0.008       0.383
 263       0.006     0.005    -0.011       0.109
 264       0.004     0.002    -0.007       0.356
 265       0.005     0.004    -0.007       0.205
 266       0.021    -0.013     0.023      -1.473
 267      -0.029     0.025     0.030       1.778
 268      -0.032     0.025     0.032       1.753
 269      -0.065    -0.010    -0.159      -0.348
 270       0.006     0.003    -0.008       0.383
 271       0.006     0.005    -0.011       0.109
 272       0.003     0.002    -0.005       0.163
 273       0.003     0.003    -0.005       0.114
 274       0.019    -0.003     0.022      -1.024
 275       0.017     0.014    -0.017       0.179
 276       0.016     0.012    -0.020       0.234
 277       0.056     0.018     0.066      -0.582
 278       0.004     0.003    -0.005       0.191
 279       0.004     0.003    -0.008       0.122
 280      -0.002     0.001     0.003       1.113
 281       0.003     0.000    -0.003       0.854
 282      -0.004     0.004     0.009       0.896
 283      -0.007     0.004     0.009       1.325
 284      -0.008     0.003     0.010       1.064
 285      -0.010     0.006     0.014       1.113
 286      -0.002     0.000     0.002       1.152
 287       0.003    -0.000    -0.004       0.801
 288       0.002    -0.000    -0.002       0.883
 289       0.003    -0.000    -0.003       1.072
 290      -0.002     0.002    -0.012      -0.342
 291      -0.006     0.003     0.007       1.263
 292      -0.007    -0.000     0.009       0.755
 293       0.017    -0.003     0.025      -0.770
 294      -0.001    -0.000     0.002       0.568
 295      -0.002    -0.001     0.004       0.396
 296       0.002     0.001    -0.003       0.266
 297       0.001    -0.000    -0.006       0.305
 298      -0.004    -0.001    -0.019      -0.211
 299       0.006     0.003    -0.013       0.255
 300       0.009     0.002    -0.013       0.551
 301       0.018     0.011    -0.031       0.251
 302       0.001     0.000    -0.006       0.121
 303       0.004     0.002    -0.008       0.288
 304       0.003     0.001    -0.005       0.259
 305       0.004     0.004    -0.006       0.091
 306      -0.004     0.001    -0.021      -0.262
 307      -0.019    -0.016    -0.059      -0.044
 308      -0.018    -0.012    -0.061      -0.095
 309      -0.315    -0.277    -0.495      -0.076
 310       0.002    -0.001    -0.012       0.245
 311       0.011    -0.010     0.011      -1.867
 312       0.003     0.001    -0.006       0.333
 313       0.005     0.004    -0.008       0.165
 314       0.010    -0.004    -0.013       0.999
 315       0.038     0.011     0.060      -0.451
 316       0.026    -0.010     0.050      -0.714
 317       0.007     0.003    -0.009       0.473
 318       0.012     0.012    -0.014       0.017
 319       0.003     0.001    -0.005       0.259
 320       0.004     0.004    -0.006       0.091
 321      -0.004     0.001    -0.021      -0.262
 322      -0.019    -0.016    -0.059      -0.044
 323      -0.018    -0.012    -0.061      -0.095
 324      -0.315    -0.277    -0.495      -0.076
 325       0.002    -0.001    -0.012       0.245
 326       0.011    -0.010     0.011      -1.867
 327       0.002     0.001    -0.003       0.266
 328       0.001    -0.000    -0.006       0.305
 329      -0.004    -0.001    -0.019      -0.211
 330       0.006     0.003    -0.013       0.255
 331       0.009     0.002    -0.013       0.551
 332       0.018     0.011    -0.031       0.251
 333       0.001     0.000    -0.006       0.121
 334       0.004     0.002    -0.008       0.288
 335      -0.001     0.001    -0.004      -0.555
 336       0.003    -0.000    -0.004       0.911
 337       0.005    -0.003    -0.016       0.525
 338       0.011     0.004    -0.015       0.456
 339       0.004    -0.001    -0.007       0.720
 340       0.008     0.004    -0.009       0.510
 341       0.002     0.000    -0.002       0.609
 342      -0.003     0.000     0.003       1.083
 343       0.002     0.001    -0.006       0.034
 344      -0.004    -0.003    -0.017      -0.028
 345      -0.106    -0.093    -0.179      -0.071
 346      -0.035    -0.016    -0.087      -0.218
 347       0.002    -0.001    -0.019       0.151
 348      -0.050    -0.044    -0.086      -0.069
 349       0.002     0.001    -0.004       0.211
 350      -0.004     0.004     0.005       1.633
 351       0.001     0.000    -0.008       0.123
 352       0.006     0.006    -0.012       0.032
 353       0.026    -0.012     0.041      -0.924
 354      -0.578    -0.565    -0.831      -0.016
 355      -0.003    -0.000    -0.034      -0.094
 356       0.048    -0.025     0.053      -1.382
 357       0.004     0.001    -0.006       0.492
 358       0.005     0.004    -0.009       0.125
 359       0.001     0.000    -0.008       0.123
 360       0.006     0.006    -0.012       0.032
 361       0.026    -0.012     0.041      -0.924
 362      -0.578    -0.565    -0.831      -0.016
 363      -0.003    -0.000    -0.034      -0.094
 364       0.048    -0.025     0.053      -1.382
 365       0.004     0.001    -0.006       0.492
 366       0.005     0.004    -0.009       0.125
 367       0.002     0.001    -0.006       0.034
 368      -0.004    -0.003    -0.017      -0.028
 369      -0.106    -0.093    -0.179      -0.071
 370      -0.035    -0.016    -0.087      -0.218
 371       0.002    -0.001    -0.019       0.151
 372      -0.050    -0.044    -0.086      -0.069
 373       0.002     0.001    -0.004       0.211
 374      -0.004     0.004     0.005       1.633
 375      -0.001     0.001    -0.004      -0.555
 376       0.003    -0.000    -0.004       0.911
 377       0.005    -0.003    -0.016       0.525
 378       0.011     0.004    -0.015       0.456
 379       0.004    -0.001    -0.007       0.720
 380       0.008     0.004    -0.009       0.510
 381       0.002     0.000    -0.002       0.609
 382      -0.003     0.000     0.003       1.083
 383      -0.002    -0.002     0.004       0.075
 384      -0.001     0.001    -0.001      -1.337
 385       0.006     0.004    -0.028       0.076
 386      -0.006    -0.002     0.006       0.619
 387       0.018    -0.002     0.022      -0.940
 388      -0.003    -0.001     0.006       0.268
 389      -0.001    -0.000     0.006       0.163
 390      -0.001     0.000     0.001       0.839
 391      -0.016    -0.011    -0.025      -0.202
 392       0.001     0.000    -0.002       0.368
 393      -0.069    -0.068    -0.156      -0.011
 394      -0.010     0.001    -0.019      -0.570
 395      -0.023     0.019     0.023       1.819
 396       0.005    -0.003    -0.006       1.262
 397       0.003    -0.000    -0.007       0.392
 398       0.002     0.001    -0.002       0.494
 399       0.008    -0.007     0.010      -1.560
 400       0.003    -0.001    -0.003       1.058
 401      -1.726    -1.698    -2.466      -0.011
 402       0.005     0.000    -0.019       0.222
 403      -0.304    -0.258    -0.473      -0.096
 404       0.002    -0.002    -0.018       0.245
 405       0.005     0.004    -0.012       0.084
 406       0.003    -0.001    -0.004       1.136
 407       0.011    -0.007     0.011      -1.597
 408       0.004    -0.001    -0.004       1.283
 409       0.159    -0.048    -0.223       0.930
 410       0.011     0.011    -0.014       0.037
 411       0.009     0.008    -0.018       0.051
 412       0.007     0.007    -0.012       0.011
 413      -0.004    -0.001     0.005       0.604
 414       0.008    -0.007     0.010      -1.560
 415       0.003    -0.001    -0.003       1.058
 416      -1.726    -1.698    -2.466      -0.011
 417       0.005     0.000    -0.019       0.222
 418      -0.304    -0.258    -0.473      -0.096
 419       0.002    -0.002    -0.018       0.245
 420       0.005     0.004    -0.012       0.084
 421       0.003    -0.001    -0.004       1.136
 422      -0.016    -0.011    -0.025      -0.202
 423       0.001     0.000    -0.002       0.368
 424      -0.069    -0.068    -0.156      -0.011
 425      -0.010     0.001    -0.019      -0.570
 426      -0.023     0.019     0.023       1.819
 427       0.005    -0.003    -0.006       1.262
 428       0.003    -0.000    -0.007       0.392
 429       0.002     0.001    -0.002       0.494
 430       0.003    -0.002    -0.016       0.278
 431       0.002    -0.001    -0.004       0.715
 432      -0.053    -0.050    -0.199      -0.015
 433      -0.005    -0.004     0.008       0.090
 434       0.005     0.001    -0.008       0.543
 435      -0.001    -0.001     0.002       0.364
 436      -0.003     0.000     0.005       0.777
 437       0.001     0.001    -0.002       0.281
 438      -0.104    -0.097    -0.175      -0.043
 439       0.003    -0.002    -0.004       1.303
 440      -2.075    -2.060    -2.997      -0.005
 441      -0.020    -0.011    -0.035      -0.273
 442       0.004     0.002    -0.023       0.075
 443      -0.002    -0.000     0.005       0.441
 444       0.007    -0.002     0.009      -1.010
 445       0.002     0.001    -0.003       0.413
 446       0.026    -0.007     0.040      -0.827
 447       0.004    -0.001    -0.008       0.720
 448       0.012     0.007    -0.025       0.215
 449       0.044    -0.004     0.049      -0.971
 450       0.005    -0.002    -0.007       0.957
 451       0.005     0.005    -0.009       0.009
 452       0.003     0.000    -0.005       0.678
 453       0.026    -0.007     0.040      -0.827
 454       0.004    -0.001    -0.008       0.720
 455       0.012     0.007    -0.025       0.215
 456       0.044    -0.004     0.049      -0.971
 457       0.005    -0.002    -0.007       0.957
 458       0.005     0.005    -0.009       0.009
 459       0.003     0.000    -0.005       0.678
 460      -0.104    -0.097    -0.175      -0.043
 461       0.003    -0.002    -0.004       1.303
 462      -2.075    -2.060    -2.997      -0.005
 463      -0.020    -0.011    -0.035      -0.273
 464       0.004     0.002    -0.023       0.075
 465      -0.002    -0.000     0.005       0.441
 466       0.007    -0.002     0.009      -1.010
 467       0.002     0.001    -0.003       0.413
 468       0.003    -0.002    -0.016       0.278
 469       0.002    -0.001    -0.004       0.715
 470      -0.053    -0.050    -0.199      -0.015
 471      -0.005    -0.004     0.008       0.090
 472       0.005     0.001    -0.008       0.543
 473      -0.001    -0.001     0.002       0.364
 474      -0.003     0.000     0.005       0.777
 475       0.001     0.001    -0.002       0.281
 476      -0.003     0.002    -0.011      -0.428
 477       0.002    -0.000    -0.003       0.919
 478       0.010     0.003    -0.028       0.245
 479      -0.007    -0.001     0.009       0.635
 480       0.005     0.001    -0.006       0.719
 481      -0.003    -0.000     0.004       0.752
 482      -0.003    -0.000     0.003       0.877
 483      -0.002     0.001     0.002       1.214
 484      -0.004    -0.001    -0.018      -0.190
 485       0.002     0.000    -0.005       0.295
 486      -0.070    -0.063    -0.156      -0.047
 487      -0.009     0.001    -0.024      -0.419
 488       0.003    -0.001    -0.017       0.264
 489       0.005     0.001    -0.006       0.506
 490       0.003     0.000    -0.005       0.452
 491       0.002     0.001    -0.003       0.240
 492      -0.006     0.000    -0.022      -0.291
 493       0.006     0.003    -0.006       0.475
 494      -1.761    -1.730    -2.521      -0.012
 495      -0.053    -0.045    -0.111      -0.071
 496      -0.054    -0.051    -0.108      -0.021
 497       0.008     0.005    -0.013       0.234
 498       0.004     0.003    -0.007       0.072
 499       0.003     0.001    -0.005       0.407
 500       0.010    -0.006    -0.015       1.051
 501       0.007     0.003    -0.008       0.472
 502       0.176    -0.036    -0.194       1.097
 503       0.016     0.010    -0.046       0.146
 504       0.017     0.015    -0.035       0.080
 505      -0.012     0.011     0.014       1.663
 506       0.004     0.003    -0.009       0.158
 507       0.004     0.001    -0.006       0.522
 508      -0.006     0.000    -0.022      -0.291
 509       0.006     0.003    -0.006       0.475
 510      -1.761    -1.730    -2.521      -0.012
 511      -0.053    -0.045    -0.111      -0.071
 512      -0.054    -0.051    -0.108      -0.021
 513       0.008     0.005    -0.013       0.234
 514       0.004     0.003    -0.007       0.072
 515       0.003     0.001    -0.005       0.407
 516      -0.004    -0.001    -0.018      -0.190
 517       0.002     0.000    -0.005       0.295
 518      -0.070    -0.063    -0.156      -0.047
 519      -0.009     0.001    -0.024      -0.419
 520       0.003    -0.001    -0.017       0.264
 521       0.005     0.001    -0.006       0.506
 522       0.003     0.000    -0.005       0.452
 523       0.002     0.001    -0.003       0.240
 524       0.003    -0.001    -0.004       1.063
 525       0.002     0.000    -0.002       0.587
 526      -0.013    -0.009    -0.046      -0.079
 527       0.006    -0.001    -0.007       1.109
 528       0.011     0.004    -0.015       0.415
 529      -0.007    -0.000     0.008       0.880
 530       0.003    -0.001    -0.004       0.919
 531      -0.002     0.001     0.002       1.258
 532       0.003     0.001    -0.007       0.333
 533       0.003     0.001    -0.004       0.341
 534      -0.084    -0.081    -0.173      -0.018
 535      -0.013    -0.006    -0.029      -0.216
 536      -0.034    -0.020    -0.086      -0.167
 537       0.010     0.004    -0.019       0.345
 538      -0.001     0.000    -0.014      -0.074
 539       0.003     0.002    -0.005       0.320
 540       0.004     0.004    -0.009       0.058
 541       0.004     0.001    -0.005       0.549
 542      -0.056    -0.001    -0.095      -0.578
 543      -0.008    -0.007    -0.041      -0.026
 544      -0.561    -0.543    -0.806      -0.022
 545      -0.026     0.022     0.027       1.799
 546       0.006     0.005    -0.013       0.076
 547      -0.006     0.003     0.006       1.399
 548       0.004     0.004    -0.009       0.058
 549       0.004     0.001    -0.005       0.549
 550      -0.056    -0.001    -0.095      -0.578
 551      -0.008    -0.007    -0.041      -0.026
 552      -0.561    -0.543    -0.806      -0.022
 553      -0.026     0.022     0.027       1.799
 554       0.006     0.005    -0.013       0.076
 555      -0.006     0.003     0.006       1.399
 556       0.003     0.001    -0.007       0.333
 557       0.003     0.001    -0.004       0.341
 558      -0.084    -0.081    -0.173      -0.018
 559      -0.013    -0.006    -0.029      -0.216
 560      -0.034    -0.020    -0.086      -0.167
 561       0.010     0.004    -0.019       0.345
 562      -0.001     0.000    -0.014      -0.074
 563       0.003     0.002    -0.005       0.320
 564       0.003    -0.001    -0.004       1.063
 565       0.002     0.000    -0.002       0.587
 566      -0.013    -0.009    -0.046      -0.079
 567       0.006    -0.001    -0.007       1.109
 568       0.011     0.004    -0.015       0.415
 569      -0.007    -0.000     0.008       0.880
 570       0.003    -0.001    -0.004       0.919
 571      -0.002     0.001     0.002       1.258
 572       0.657     0.571     0.772      -0.112
 573      -0.241    -0.034     0.400       0.517
 574     -14.791   -14.746   -25.886      -0.002
 575     -14.791   -14.746   -25.886      -0.002
 576       0.637     0.542     0.751      -0.126
 ---------------------------------------------------------------------



--------------------------------------------------------------------------------------------------------


     LOOP+:  cpu time 1149.2356: real time 1153.0337
    4ORBIT:  cpu time    0.0000: real time    0.0000

 total amount of memory used by VASP MPI-rank0   238703. kBytes
=======================================================================

   base      :      30000. kBytes
   nonlr-proj:       9226. kBytes
   fftplans  :      15014. kBytes
   grid      :      46644. kBytes
   one-center:        294. kBytes
   wavefun   :     137525. kBytes
 
  
  
 General timing and accounting informations for this job:
 ========================================================
  
                  Total CPU time used (sec):     1179.880
                            User time (sec):     1174.984
                          System time (sec):        4.895
                         Elapsed time (sec):     1184.498
  
                   Maximum memory used (kb):      430280.
                   Average memory used (kb):          N/A
  
                          Minor page faults:       971497
                          Major page faults:           10
                 Voluntary context switches:        12477
