 vasp.6.2.0 18Jan21 (build Apr 30 2021 19:00:08) gamma-only                     
  
 executed on             LinuxIFC date 2022.12.30  13:05:35
 running on   24 total cores
 distrk:  each k-point on   24 cores,    1 groups
 distr:  one band on NCORE=   6 cores,    4 groups


--------------------------------------------------------------------------------------------------------


 INCAR:
   SYSTEM = Diamond
   PREC = Normal
   ISTART = 0
   ICHARG = 11
   ISPIN = 2
   MAGMOM = 572*0.0 1*2.0 2*2.0 1*3
   NPAR = 4
   NELECT = 2303
   LHYPERFINE = T
   LEFG = T
   ENCUT = 700
   NELM = 1000
   NELMIN = 4
   EDIFF = 1E-06
   LREAL = Auto
   ALGO = Normal
   EDIFFG = -1E-02
   NSW = 0
   IBRION = 2
   ISIF = 2
   ISYM = 2
   POTIM = 0.5
   ISMEAR = 0
   SIGMA = 0.05
   NEDOS = 1000
   LWAVE = F
   LCHARG = F
   LVHAR = F
   LELF = F

 POTCAR:    PAW_PBE C 08Apr2002                   
 POTCAR:    PAW_PBE H 15Jun2001                   
 POTCAR:    PAW_PBE C 08Apr2002                   
 POTCAR:    PAW_PBE N 08Apr2002                   
 POTCAR:    PAW_PBE C 08Apr2002                   
   VRHFIN =C: s2p2                                                                                  
   LEXCH  = PE                                                                                      
   EATOM  =   147.1560 eV,   10.8157 Ry                                                             
                                                                                                    
   TITEL  = PAW_PBE C 08Apr2002                                                                     
   LULTRA =        F    use ultrasoft PP ?                                                          
   IUNSCR =        1    unscreen: 0-lin 1-nonlin 2-no                                               
   RPACOR =    1.200    partial core radius                                                         
   POMASS =   12.011; ZVAL   =    4.000    mass and valenz                                          
   RCORE  =    1.500    outmost cutoff radius                                                       
   RWIGS  =    1.630; RWIGS  =    0.863    wigner-seitz radius (au A)                               
   ENMAX  =  400.000; ENMIN  =  300.000 eV                                                          
   ICORE  =        2    local potential                                                             
   LCOR   =        T    correct aug charges                                                         
   LPAW   =        T    paw PP                                                                      
   EAUG   =  644.873                                                                                
   DEXC   =    0.000                                                                                
   RMAX   =    1.529    core radius for proj-oper                                                   
   RAUG   =    1.300    factor for augmentation sphere                                              
   RDEP   =    1.501    radius for radial grids                                                     
   RDEPT  =    1.300    core radius for aug-charge                                                  
                                                                                                    
   Atomic configuration                                                                             
    4 entries                                                                                       
     n  l   j            E        occ.                                                              
     1  0  0.50      -273.3789   2.0000                                                             
     2  0  0.50       -13.7508   2.0000                                                             
     2  1  0.50        -5.2854   2.0000                                                             
     3  2  1.50        -5.4423   0.0000                                                             
   Description                                                                                      
     l       E           TYP  RCUT    TYP  RCUT                                                     
     0    -13.7508458     23  1.200                                                                 
     0     -8.2022199     23  1.200                                                                 
     1     -5.2854383     23  1.500                                                                 
     1     34.0145650     23  1.500                                                                 
     2     -5.4423304      7  1.500                                                                 
  local pseudopotential read in
  partial core-charges read in
  partial kinetic energy density read in
  atomic valenz-charges read in
  non local Contribution for L=           0  read in
    real space projection operators read in
  non local Contribution for L=           0  read in
    real space projection operators read in
  non local Contribution for L=           1  read in
    real space projection operators read in
  non local Contribution for L=           1  read in
    real space projection operators read in
    PAW grid and wavefunctions read in
 
   number of l-projection  operators is LMAX  =           4
   number of lm-projection operators is LMMAX =           8
 
 POTCAR:    PAW_PBE H 15Jun2001                   
   VRHFIN =H: ultrasoft test                                                                        
   LEXCH  = PE                                                                                      
   EATOM  =    12.4884 eV,    0.9179 Ry                                                             
                                                                                                    
   TITEL  = PAW_PBE H 15Jun2001                                                                     
   LULTRA =        F    use ultrasoft PP ?                                                          
   IUNSCR =        0    unscreen: 0-lin 1-nonlin 2-no                                               
   RPACOR =    0.000    partial core radius                                                         
   POMASS =    1.000; ZVAL   =    1.000    mass and valenz                                          
   RCORE  =    1.100    outmost cutoff radius                                                       
   RWIGS  =    0.700; RWIGS  =    0.370    wigner-seitz radius (au A)                               
   ENMAX  =  250.000; ENMIN  =  200.000 eV                                                          
   RCLOC  =    0.701    cutoff for local pot                                                        
   LCOR   =        T    correct aug charges                                                         
   LPAW   =        T    paw PP                                                                      
   EAUG   =  400.000                                                                                
   RMAX   =    1.123    core radius for proj-oper                                                   
   RAUG   =    1.200    factor for augmentation sphere                                              
   RDEP   =    1.112    radius for radial grids                                                     
   RDEPT  =    0.926    core radius for aug-charge                                                  
                                                                                                    
   Atomic configuration                                                                             
    2 entries                                                                                       
     n  l   j            E        occ.                                                              
     1  0  0.50        -6.4927   1.0000                                                             
     2  1  0.50        -3.4015   0.0000                                                             
   Description                                                                                      
     l       E           TYP  RCUT    TYP  RCUT                                                     
     0     -6.4927494     23  1.100                                                                 
     0      6.8029130     23  1.100                                                                 
     1     -4.0817478     23  1.100                                                                 
  local pseudopotential read in
  atomic valenz-charges read in
  non local Contribution for L=           0  read in
    real space projection operators read in
  non local Contribution for L=           0  read in
    real space projection operators read in
  non local Contribution for L=           1  read in
    real space projection operators read in
    PAW grid and wavefunctions read in
 
   number of l-projection  operators is LMAX  =           3
   number of lm-projection operators is LMMAX =           5
 
 POTCAR:    PAW_PBE C 08Apr2002                   
   VRHFIN =C: s2p2                                                                                  
   LEXCH  = PE                                                                                      
   EATOM  =   147.1560 eV,   10.8157 Ry                                                             
                                                                                                    
   TITEL  = PAW_PBE C 08Apr2002                                                                     
   LULTRA =        F    use ultrasoft PP ?                                                          
   IUNSCR =        1    unscreen: 0-lin 1-nonlin 2-no                                               
   RPACOR =    1.200    partial core radius                                                         
   POMASS =   12.011; ZVAL   =    4.000    mass and valenz                                          
   RCORE  =    1.500    outmost cutoff radius                                                       
   RWIGS  =    1.630; RWIGS  =    0.863    wigner-seitz radius (au A)                               
   ENMAX  =  400.000; ENMIN  =  300.000 eV                                                          
   ICORE  =        2    local potential                                                             
   LCOR   =        T    correct aug charges                                                         
   LPAW   =        T    paw PP                                                                      
   EAUG   =  644.873                                                                                
   DEXC   =    0.000                                                                                
   RMAX   =    1.529    core radius for proj-oper                                                   
   RAUG   =    1.300    factor for augmentation sphere                                              
   RDEP   =    1.501    radius for radial grids                                                     
   RDEPT  =    1.300    core radius for aug-charge                                                  
                                                                                                    
   Atomic configuration                                                                             
    4 entries                                                                                       
     n  l   j            E        occ.                                                              
     1  0  0.50      -273.3789   2.0000                                                             
     2  0  0.50       -13.7508   2.0000                                                             
     2  1  0.50        -5.2854   2.0000                                                             
     3  2  1.50        -5.4423   0.0000                                                             
   Description                                                                                      
     l       E           TYP  RCUT    TYP  RCUT                                                     
     0    -13.7508458     23  1.200                                                                 
     0     -8.2022199     23  1.200                                                                 
     1     -5.2854383     23  1.500                                                                 
     1     34.0145650     23  1.500                                                                 
     2     -5.4423304      7  1.500                                                                 
  local pseudopotential read in
  partial core-charges read in
  partial kinetic energy density read in
  atomic valenz-charges read in
  non local Contribution for L=           0  read in
    real space projection operators read in
  non local Contribution for L=           0  read in
    real space projection operators read in
  non local Contribution for L=           1  read in
    real space projection operators read in
  non local Contribution for L=           1  read in
    real space projection operators read in
    PAW grid and wavefunctions read in
 
   number of l-projection  operators is LMAX  =           4
   number of lm-projection operators is LMMAX =           8
 
 POTCAR:    PAW_PBE N 08Apr2002                   
   VRHFIN =N: s2p3                                                                                  
   LEXCH  = PE                                                                                      
   EATOM  =   264.5486 eV,   19.4438 Ry                                                             
                                                                                                    
   TITEL  = PAW_PBE N 08Apr2002                                                                     
   LULTRA =        F    use ultrasoft PP ?                                                          
   IUNSCR =        1    unscreen: 0-lin 1-nonlin 2-no                                               
   RPACOR =    1.200    partial core radius                                                         
   POMASS =   14.001; ZVAL   =    5.000    mass and valenz                                          
   RCORE  =    1.500    outmost cutoff radius                                                       
   RWIGS  =    1.400; RWIGS  =    0.741    wigner-seitz radius (au A)                               
   ENMAX  =  400.000; ENMIN  =  300.000 eV                                                          
   ICORE  =        2    local potential                                                             
   LCOR   =        T    correct aug charges                                                         
   LPAW   =        T    paw PP                                                                      
   EAUG   =  627.112                                                                                
   DEXC   =    0.000                                                                                
   RMAX   =    1.529    core radius for proj-oper                                                   
   RAUG   =    1.300    factor for augmentation sphere                                              
   RDEP   =    1.514    radius for radial grids                                                     
   RDEPT  =    1.338    core radius for aug-charge                                                  
                                                                                                    
   Atomic configuration                                                                             
    4 entries                                                                                       
     n  l   j            E        occ.                                                              
     1  0  0.50      -384.7179   2.0000                                                             
     2  0  0.50       -18.5828   2.0000                                                             
     2  1  0.50        -7.0898   3.0000                                                             
     3  2  1.50        -6.8029   0.0000                                                             
   Description                                                                                      
     l       E           TYP  RCUT    TYP  RCUT                                                     
     0    -18.5828119     23  1.200                                                                 
     0    -13.5018863     23  1.200                                                                 
     1     -7.0897853     23  1.500                                                                 
     1      9.5240782     23  1.500                                                                 
     2     -6.8029130      7  1.500                                                                 
  local pseudopotential read in
  partial core-charges read in
  partial kinetic energy density read in
  atomic valenz-charges read in
  non local Contribution for L=           0  read in
    real space projection operators read in
  non local Contribution for L=           0  read in
    real space projection operators read in
  non local Contribution for L=           1  read in
    real space projection operators read in
  non local Contribution for L=           1  read in
    real space projection operators read in
    PAW grid and wavefunctions read in
 
   number of l-projection  operators is LMAX  =           4
   number of lm-projection operators is LMMAX =           8
 
 Optimization of the real space projectors (new method)

 maximal supplied QI-value         = 25.13
 optimisation between [QCUT,QGAM] = [ 13.32, 26.89] = [ 49.69,202.52] Ry 
 Optimized for a Real-space Cutoff    1.01 Angstroem

   l    n(q)    QCUT    max X(q) W(low)/X(q) W(high)/X(q)  e(spline) 
   0      8    13.321   115.676    0.29E-03    0.42E-03    0.11E-06
   0      8    13.321    87.132    0.29E-03    0.42E-03    0.11E-06
   1      8    13.321     4.429    0.39E-03    0.33E-03    0.98E-07
   1      8    13.321     2.733    0.30E-03    0.26E-03    0.97E-07
 Optimization of the real space projectors (new method)

 maximal supplied QI-value         = 34.20
 optimisation between [QCUT,QGAM] = [ 13.34, 27.02] = [ 49.83,204.46] Ry 
 Optimized for a Real-space Cutoff    0.93 Angstroem

   l    n(q)    QCUT    max X(q) W(low)/X(q) W(high)/X(q)  e(spline) 
   0      7    13.340    19.460    0.47E-03    0.72E-04    0.17E-06
   0      7    13.340    12.209    0.45E-03    0.63E-04    0.16E-06
   1      7    13.340     4.655    0.21E-03    0.61E-03    0.12E-06
 Optimization of the real space projectors (new method)

 maximal supplied QI-value         = 25.13
 optimisation between [QCUT,QGAM] = [ 13.32, 26.89] = [ 49.69,202.52] Ry 
 Optimized for a Real-space Cutoff    1.01 Angstroem

   l    n(q)    QCUT    max X(q) W(low)/X(q) W(high)/X(q)  e(spline) 
   0      8    13.321   115.676    0.29E-03    0.42E-03    0.11E-06
   0      8    13.321    87.132    0.29E-03    0.42E-03    0.11E-06
   1      8    13.321     4.429    0.39E-03    0.33E-03    0.98E-07
   1      8    13.321     2.733    0.30E-03    0.26E-03    0.97E-07
 Optimization of the real space projectors (new method)

 maximal supplied QI-value         = 25.13
 optimisation between [QCUT,QGAM] = [ 13.32, 26.89] = [ 49.69,202.52] Ry 
 Optimized for a Real-space Cutoff    1.01 Angstroem

   l    n(q)    QCUT    max X(q) W(low)/X(q) W(high)/X(q)  e(spline) 
   0      8    13.321    79.467    0.28E-03    0.38E-03    0.11E-06
   0      8    13.321    66.151    0.27E-03    0.38E-03    0.11E-06
   1      8    13.321    23.070    0.40E-03    0.78E-03    0.29E-06
   1      8    13.321    16.668    0.40E-03    0.79E-03    0.30E-06
  PAW_PBE C 08Apr2002                   :
 energy of atom  1       EATOM= -147.1560
 kinetic energy error for atom=    0.0032 (will be added to EATOM!!)
  PAW_PBE H 15Jun2001                   :
 energy of atom  2       EATOM=  -12.4884
 kinetic energy error for atom=    0.0002 (will be added to EATOM!!)
  PAW_PBE C 08Apr2002                   :
 energy of atom  3       EATOM= -147.1560
 kinetic energy error for atom=    0.0032 (will be added to EATOM!!)
  PAW_PBE N 08Apr2002                   :
 energy of atom  4       EATOM= -264.5486
 kinetic energy error for atom=    0.0061 (will be added to EATOM!!)
 
 
 POSCAR: Autosave
  positions in direct lattice
  velocities in cartesian coordinates
 exchange correlation table for  LEXCH =        8
   RHO(1)=    0.500       N(1)  =     2000
   RHO(2)=  100.500       N(2)  =     4000
 


--------------------------------------------------------------------------------------------------------


 ion  position               nearest neighbor table
   1  0.000  0.000  0.000- 285 1.55 381 1.55 475 1.55 435 1.55
   2  0.000  0.000  0.500- 286 1.55 380 1.55 434 1.55 474 1.55
   3  0.000  0.250  0.000- 287 1.55 383 1.55 469 1.55 429 1.55
   4  1.000  0.250  0.500- 288 1.55 382 1.55 468 1.55 428 1.55
   5  0.000  0.500  0.000- 289 1.55 471 1.55 385 1.55 431 1.55
   6  1.000  0.500  0.500- 290 1.55 384 1.55 470 1.55 430 1.55
   7  0.000  0.750  0.000- 473 1.55 291 1.55 387 1.55 433 1.55
   8  0.000  0.750  0.500- 292 1.55 472 1.55 432 1.55 386 1.55
   9  0.167  0.000  0.000- 293 1.55 435 1.55 389 1.55 443 1.55
  10  0.167  0.000  0.500- 434 1.55 388 1.55 294 1.55 442 1.55
  11  0.167  0.250  0.000- 429 1.55 295 1.55 437 1.55 391 1.55
  12  0.167  0.250  0.500- 296 1.55 436 1.55 390 1.55 428 1.55
  13  0.167  0.500  1.000- 297 1.55 431 1.55 393 1.55 439 1.55
  14  0.167  0.500  0.500- 430 1.54 298 1.55 392 1.55 438 1.55
  15  0.167  0.750  0.000- 299 1.55 433 1.55 395 1.55 441 1.55
  16  0.167  0.750  0.500- 432 1.55 300 1.55 394 1.55 440 1.55
  17  0.333  1.000  0.000- 397 1.55 301 1.55 443 1.55 451 1.55
  18  0.333  1.000  0.500- 302 1.55 396 1.55 442 1.55 450 1.55
  19  0.333  0.250  0.000- 303 1.55 437 1.55 445 1.55 399 1.55
  20  0.333  0.250  0.500- 304 1.55 444 1.55 436 1.55 398 1.55
  21  0.334  0.500  0.999- 439 1.55 401 1.55 305 1.55 447 1.55
  22  0.333  0.500  0.500- 438 1.54 400 1.55 446 1.55 306 1.55
  23  0.333  0.750  1.000- 307 1.55 403 1.55 441 1.55 449 1.55
  24  0.333  0.750  0.500- 402 1.54 308 1.55 440 1.55 448 1.55
  25  0.500  1.000  0.000- 405 1.55 309 1.55 459 1.55 451 1.55
  26  0.500  1.000  0.500- 404 1.55 310 1.55 458 1.55 450 1.55
  27  0.500  0.250  0.000- 407 1.54 311 1.54 453 1.55 445 1.55
  28  0.500  0.250  0.500- 452 1.55 444 1.55 312 1.55 406 1.55
  29  0.500  0.500  0.999- 455 1.55 447 1.55 409 1.55 313 1.55
  30  0.500  0.750  1.000- 314 1.54 411 1.55 457 1.55 449 1.55
  31  0.500  0.750  0.500- 315 1.55 410 1.55 456 1.55 448 1.55
  32  0.667  1.000  0.000- 413 1.55 316 1.55 459 1.55 467 1.55
  33  0.667  1.000  0.500- 317 1.55 412 1.55 466 1.55 458 1.55
  34  0.667  0.250  0.000- 318 1.55 415 1.55 461 1.55 453 1.55
  35  0.667  0.250  0.500- 319 1.55 452 1.55 460 1.55 414 1.55
  36  0.667  0.500  1.000- 463 1.55 320 1.55 417 1.55 455 1.55
  37  0.666  0.500  0.501- 416 1.54 321 1.55 462 1.55 454 1.55
  38  0.667  0.750  0.000- 322 1.55 419 1.55 465 1.55 457 1.55
  39  0.667  0.750  0.500- 418 1.55 464 1.55 323 1.55 456 1.55
  40  0.833  1.000  0.000- 324 1.55 421 1.55 475 1.55 467 1.55
  41  0.833  0.000  0.500- 474 1.55 325 1.55 420 1.55 466 1.55
  42  0.833  0.250  0.000- 423 1.55 469 1.55 461 1.55 326 1.55
  43  0.833  0.250  0.500- 327 1.55 460 1.55 422 1.55 468 1.55
  44  0.833  0.500  0.000- 328 1.55 471 1.55 425 1.55 463 1.55
  45  0.833  0.500  0.500- 470 1.55 424 1.55 329 1.55 462 1.55
  46  0.833  0.750  0.000- 465 1.55 330 1.55 473 1.55 427 1.55
  47  0.833  0.750  0.500- 331 1.55 472 1.55 426 1.55 464 1.55
  48  0.083  0.125  0.000- 332 1.55 429 1.55 381 1.55 389 1.55
  49  0.083  0.125  0.500- 428 1.55 333 1.55 388 1.55 380 1.55
  50  0.083  0.375  1.000- 383 1.55 334 1.55 431 1.55 391 1.55
  51  0.083  0.375  0.500- 335 1.55 430 1.55 390 1.55 382 1.55
  52  0.083  0.625  0.000- 385 1.55 336 1.55 433 1.55 393 1.55
  53  0.083  0.625  0.500- 384 1.55 337 1.55 432 1.55 392 1.55
  54  0.083  0.875  0.000- 338 1.55 387 1.55 435 1.55 395 1.55
  55  0.083  0.875  0.500- 386 1.55 434 1.55 394 1.55 339 1.55
  56  0.250  0.125  0.000- 340 1.55 437 1.55 389 1.55 397 1.55
  57  0.250  0.125  0.500- 341 1.55 388 1.55 396 1.55 436 1.55
  58  0.250  0.375  1.000- 342 1.54 391 1.55 399 1.55 439 1.55
  59  0.250  0.375  0.500- 343 1.54 398 1.54 438 1.55 390 1.55
  60  0.250  0.625  1.000- 344 1.54 393 1.55 401 1.55 441 1.55
  61  0.250  0.625  0.500- 345 1.55 392 1.55 440 1.55 400 1.55
  62  0.250  0.875  1.000- 346 1.55 443 1.55 395 1.55 403 1.55
  63  0.250  0.875  0.500- 442 1.55 394 1.55 347 1.55 402 1.55
  64  0.417  0.125  0.000- 445 1.54 348 1.55 397 1.55 405 1.55
  65  0.417  0.125  0.500- 349 1.55 396 1.55 404 1.55 444 1.55
  66  0.417  0.375  1.000- 407 1.55 350 1.55 399 1.55 447 1.55
  67  0.418  0.376  0.501- 406 1.54 446 1.55 398 1.56 351 1.56
  68  0.417  0.625  1.000- 352 1.55 449 1.55 401 1.55 409 1.55
  69  0.417  0.625  0.500- 448 1.54 400 1.54 408 1.55 353 1.55
  70  0.417  0.875  1.000- 451 1.55 354 1.55 403 1.55 411 1.55
  71  0.417  0.875  0.500- 450 1.55 355 1.55 410 1.55 402 1.55
  72  0.583  0.125  0.000- 453 1.54 356 1.55 413 1.55 405 1.55
  73  0.583  0.125  0.500- 357 1.55 412 1.55 404 1.55 452 1.55
  74  0.583  0.375  1.000- 358 1.55 415 1.55 407 1.55 455 1.55
  75  0.582  0.376  0.501- 406 1.54 454 1.55 359 1.56 414 1.56
  76  0.583  0.625  1.000- 360 1.55 457 1.55 417 1.55 409 1.55
  77  0.583  0.625  0.500- 416 1.54 456 1.55 361 1.55 408 1.56
  78  0.583  0.875  0.000- 459 1.55 362 1.55 419 1.55 411 1.55
  79  0.583  0.875  0.500- 458 1.55 363 1.55 418 1.55 410 1.55
  80  0.750  0.125  0.000- 461 1.55 364 1.55 421 1.55 413 1.55
  81  0.750  0.125  0.500- 365 1.55 420 1.55 412 1.55 460 1.55
  82  0.750  0.375  0.000- 366 1.55 423 1.55 415 1.55 463 1.55
  83  0.750  0.375  0.500- 367 1.54 414 1.54 462 1.55 422 1.55
  84  0.750  0.625  0.000- 417 1.54 368 1.54 425 1.55 465 1.55
  85  0.750  0.625  0.500- 369 1.55 424 1.55 464 1.55 416 1.55
  86  0.750  0.875  0.000- 467 1.55 370 1.55 427 1.55 419 1.55
  87  0.750  0.875  0.500- 466 1.55 426 1.55 371 1.55 418 1.55
  88  0.917  0.125  0.000- 372 1.55 469 1.55 381 1.55 421 1.55
  89  0.917  0.125  0.500- 373 1.55 468 1.55 380 1.55 420 1.55
  90  0.917  0.375  0.000- 374 1.55 471 1.55 423 1.55 383 1.55
  91  0.917  0.375  0.500- 375 1.55 470 1.55 422 1.55 382 1.55
  92  0.917  0.625  0.000- 425 1.55 376 1.55 385 1.55 473 1.55
  93  0.917  0.625  0.500- 384 1.55 377 1.55 472 1.55 424 1.55
  94  0.917  0.875  0.000- 427 1.55 378 1.55 475 1.55 387 1.55
  95  0.917  0.875  0.500- 386 1.55 474 1.55 379 1.55 426 1.55
  96  1.000  0.083  0.333- 380 1.55 476 1.55 564 1.55 524 1.55
  97  0.000  0.083  0.833- 477 1.55 381 1.55 525 1.55 565 1.55
  98  1.000  0.333  0.333- 382 1.55 478 1.55 566 1.55 526 1.55
  99  0.000  0.333  0.833- 383 1.55 479 1.55 527 1.55 567 1.55
 100  1.000  0.583  0.333- 384 1.55 480 1.55 568 1.55 528 1.55
 101  0.000  0.583  0.833- 569 1.55 529 1.55 385 1.55 481 1.55
 102  0.000  0.833  0.333- 386 1.55 570 1.55 482 1.55 530 1.55
 103  0.000  0.833  0.833- 571 1.55 387 1.55 483 1.55 531 1.55
 104  0.167  0.083  0.333- 388 1.55 484 1.55 524 1.55 532 1.55
 105  0.167  0.083  0.833- 525 1.55 389 1.55 485 1.55 533 1.55
 106  0.167  0.333  0.333- 534 1.55 390 1.55 486 1.55 526 1.55
 107  0.167  0.333  0.833- 391 1.55 527 1.55 535 1.55 487 1.55
 108  0.167  0.583  0.333- 528 1.55 392 1.55 488 1.55 536 1.55
 109  0.167  0.583  0.833- 393 1.55 529 1.55 537 1.55 489 1.55
 110  0.167  0.833  0.333- 394 1.55 490 1.55 530 1.55 538 1.55
 111  0.167  0.833  0.833- 531 1.55 539 1.55 395 1.55 491 1.55
 112  0.333  0.083  0.333- 396 1.55 492 1.55 532 1.55 540 1.55
 113  0.333  0.083  0.833- 493 1.54 533 1.55 397 1.55 541 1.55
 114  0.334  0.334  0.334- 542 1.55 494 1.55 534 1.55 398 1.55
 115  0.333  0.333  0.833- 399 1.55 535 1.55 543 1.55 495 1.55
 116  0.333  0.583  0.333- 536 1.55 496 1.55 544 1.55 400 1.55
 117  0.333  0.583  0.833- 401 1.54 537 1.55 497 1.55 545 1.57
 118  0.333  0.833  0.333- 498 1.55 402 1.55 538 1.55 546 1.55
 119  0.333  0.833  0.833- 499 1.55 403 1.55 539 1.55 547 1.55
 120  0.500  0.083  0.333- 404 1.55 500 1.55 548 1.55 540 1.55
 121  0.500  0.083  0.833- 501 1.54 405 1.55 549 1.55 541 1.55
 122  0.500  0.333  0.334- 550 1.55 542 1.55 502 1.55 406 1.55
 123  0.500  0.332  0.835- 407 1.54 503 1.54 551 1.55 543 1.55
 124  0.500  0.584  0.332- 504 1.54 552 1.55 544 1.55 408 1.55
 125  0.500  0.583  0.832- 505 1.54 553 1.55 409 1.55 545 1.55
 126  0.500  0.833  0.333- 506 1.55 410 1.55 554 1.55 546 1.55
 127  0.500  0.833  0.833- 507 1.55 411 1.55 555 1.55 547 1.55
 128  0.667  0.083  0.333- 412 1.55 508 1.55 556 1.55 548 1.55
 129  0.667  0.083  0.833- 509 1.54 557 1.55 413 1.55 549 1.55
 130  0.666  0.334  0.334- 550 1.55 510 1.55 558 1.55 414 1.55
 131  0.667  0.333  0.834- 415 1.54 559 1.55 551 1.55 511 1.55
 132  0.666  0.583  0.334- 560 1.55 512 1.55 552 1.55 416 1.55
 133  0.667  0.584  0.835- 417 1.54 553 1.54 561 1.55 513 1.55
 134  0.667  0.833  0.333- 514 1.55 418 1.55 562 1.55 554 1.55
 135  0.667  0.833  0.833- 515 1.55 419 1.55 563 1.55 555 1.55
 136  0.833  0.083  0.333- 420 1.55 516 1.55 564 1.55 556 1.55
 137  0.833  0.083  0.833- 565 1.55 517 1.55 421 1.55 557 1.55
 138  0.833  0.333  0.334- 558 1.55 422 1.55 518 1.55 566 1.55
 139  0.833  0.333  0.833- 567 1.55 423 1.55 519 1.55 559 1.55
 140  0.833  0.583  0.333- 424 1.55 568 1.55 520 1.55 560 1.55
 141  0.834  0.583  0.834- 561 1.54 569 1.55 425 1.55 521 1.55
 142  0.833  0.833  0.333- 426 1.55 570 1.55 522 1.55 562 1.55
 143  0.833  0.833  0.833- 563 1.55 523 1.55 427 1.55 571 1.55
 144  0.083  0.208  0.333- 428 1.55 526 1.55 484 1.55 476 1.55
 145  0.083  0.208  0.833- 485 1.55 429 1.55 477 1.55 527 1.55
 146  0.083  0.458  0.333- 430 1.55 478 1.55 486 1.55 528 1.55
 147  0.083  0.458  0.833- 431 1.55 479 1.55 529 1.55 487 1.55
 148  0.083  0.708  0.333- 432 1.55 480 1.55 488 1.55 530 1.55
 149  0.083  0.708  0.833- 481 1.55 433 1.55 531 1.55 489 1.55
 150  0.083  0.958  0.333- 434 1.55 524 1.55 490 1.55 482 1.55
 151  0.083  0.958  0.833- 491 1.55 435 1.55 483 1.55 525 1.55
 152  0.250  0.208  0.333- 436 1.55 534 1.55 492 1.55 484 1.55
 153  0.250  0.208  0.833- 485 1.55 437 1.55 493 1.55 535 1.55
 154  0.250  0.458  0.333- 486 1.54 536 1.55 494 1.55 438 1.55
 155  0.250  0.458  0.833- 439 1.55 487 1.55 537 1.55 495 1.55
 156  0.250  0.708  0.333- 538 1.55 440 1.55 488 1.55 496 1.55
 157  0.250  0.708  0.833- 441 1.55 489 1.55 539 1.55 497 1.55
 158  0.250  0.958  0.333- 442 1.55 532 1.55 490 1.55 498 1.55
 159  0.250  0.958  0.833- 533 1.55 443 1.55 491 1.55 499 1.55
 160  0.417  0.208  0.333- 444 1.55 492 1.55 500 1.55 542 1.55
 161  0.417  0.208  0.834- 543 1.54 445 1.55 493 1.55 501 1.55
 162  0.416  0.458  0.332- 494 1.54 502 1.55 544 1.55 446 1.55
 163  0.417  0.458  0.831- 495 1.54 545 1.55 503 1.56 447 1.56
 164  0.417  0.708  0.333- 546 1.54 496 1.55 504 1.55 448 1.55
 165  0.417  0.708  0.833- 449 1.55 497 1.55 547 1.55 505 1.55
 166  0.417  0.958  0.333- 540 1.55 450 1.55 498 1.55 506 1.55
 167  0.417  0.958  0.833- 541 1.55 451 1.55 499 1.55 507 1.55
 168  0.583  0.208  0.333- 452 1.55 508 1.55 550 1.55 500 1.55
 169  0.583  0.208  0.834- 551 1.54 453 1.55 509 1.55 501 1.55
 170  0.583  0.458  0.333- 510 1.54 502 1.55 552 1.55 454 1.57
 171  0.583  0.458  0.832- 511 1.54 553 1.55 455 1.55 503 1.56
 172  0.583  0.708  0.333- 554 1.55 512 1.55 504 1.55 456 1.55
 173  0.583  0.708  0.833- 457 1.55 555 1.55 513 1.55 505 1.55
 174  0.583  0.958  0.333- 458 1.55 548 1.55 514 1.55 506 1.55
 175  0.583  0.958  0.833- 549 1.55 459 1.55 515 1.55 507 1.55
 176  0.750  0.208  0.334- 460 1.55 558 1.55 508 1.55 516 1.55
 177  0.750  0.208  0.833- 517 1.55 461 1.55 559 1.55 509 1.55
 178  0.750  0.458  0.334- 560 1.55 510 1.55 518 1.55 462 1.55
 179  0.750  0.458  0.833- 463 1.54 519 1.55 561 1.55 511 1.55
 180  0.750  0.708  0.333- 464 1.55 520 1.55 562 1.55 512 1.55
 181  0.750  0.708  0.834- 513 1.54 465 1.55 563 1.55 521 1.55
 182  0.750  0.958  0.333- 466 1.55 556 1.55 522 1.55 514 1.55
 183  0.750  0.958  0.833- 557 1.55 523 1.55 467 1.55 515 1.55
 184  0.917  0.208  0.333- 468 1.55 516 1.55 566 1.55 476 1.55
 185  0.917  0.208  0.833- 517 1.55 567 1.55 469 1.55 477 1.55
 186  0.917  0.458  0.333- 470 1.55 518 1.55 568 1.55 478 1.55
 187  0.917  0.458  0.833- 471 1.55 479 1.55 569 1.55 519 1.55
 188  0.917  0.708  0.333- 472 1.55 520 1.55 570 1.55 480 1.55
 189  0.917  0.708  0.833- 521 1.55 473 1.55 571 1.55 481 1.55
 190  0.917  0.958  0.333- 474 1.55 522 1.55 564 1.55 482 1.55
 191  0.917  0.958  0.833- 523 1.55 565 1.55 475 1.55 483 1.55
 192  1.000  0.167  0.167- 476 1.55 287 1.55 372 1.55 332 1.55
 193  0.000  0.167  0.667- 333 1.55 288 1.55 373 1.55 477 1.55
 194  1.000  0.417  0.167- 374 1.55 478 1.55 289 1.55 334 1.55
 195  0.000  0.417  0.667- 479 1.55 290 1.55 375 1.55 335 1.55
 196  0.000  0.667  0.167- 376 1.55 480 1.55 336 1.55 291 1.55
 197  0.000  0.667  0.667- 377 1.54 337 1.55 292 1.55 481 1.55
 198  0.000  0.917  0.167- 482 1.55 378 1.55 285 1.55 338 1.55
 199  0.000  0.917  0.667- 339 1.55 379 1.55 286 1.55 483 1.55
 200  0.167  0.167  0.167- 484 1.55 295 1.55 332 1.55 340 1.55
 201  0.167  0.167  0.667- 485 1.55 333 1.55 341 1.55 296 1.55
 202  0.167  0.417  0.167- 334 1.55 297 1.55 486 1.55 342 1.55
 203  0.167  0.417  0.667- 487 1.55 298 1.55 335 1.55 343 1.55
 204  0.167  0.667  0.167- 488 1.55 336 1.55 299 1.55 344 1.55
 205  0.167  0.667  0.667- 345 1.55 337 1.55 489 1.55 300 1.55
 206  0.167  0.917  0.167- 490 1.55 293 1.55 338 1.55 346 1.55
 207  0.167  0.917  0.667- 347 1.54 294 1.54 339 1.55 491 1.55
 208  0.333  0.167  0.167- 492 1.55 303 1.55 340 1.55 348 1.55
 209  0.333  0.166  0.667- 304 1.54 341 1.54 493 1.55 349 1.55
 210  0.333  0.417  0.166- 494 1.54 342 1.54 350 1.55 305 1.55
 211  0.335  0.417  0.667- 495 1.54 306 1.55 343 1.56 351 1.56
 212  0.333  0.667  0.166- 307 1.55 496 1.55 344 1.55 352 1.55
 213  0.333  0.668  0.666- 308 1.54 497 1.55 345 1.55 353 1.55
 214  0.333  0.917  0.167- 301 1.55 498 1.55 346 1.55 354 1.55
 215  0.333  0.917  0.667- 302 1.55 499 1.55 347 1.55 355 1.55
 216  0.500  0.167  0.167- 311 1.55 500 1.55 356 1.55 348 1.55
 217  0.500  0.166  0.667- 312 1.54 357 1.55 349 1.55 501 1.55
 218  0.500  0.417  0.167- 358 1.55 313 1.55 350 1.55 502 1.55
 219  0.500  0.667  0.166- 504 1.54 314 1.54 360 1.55 352 1.55
 220  0.500  0.666  0.666- 505 1.54 315 1.55 361 1.55 353 1.56
 221  0.500  0.917  0.167- 309 1.55 506 1.55 362 1.55 354 1.55
 222  0.500  0.917  0.667- 310 1.55 363 1.55 507 1.55 355 1.55
 223  0.667  0.167  0.167- 508 1.55 318 1.55 364 1.55 356 1.55
 224  0.667  0.166  0.667- 319 1.54 365 1.54 509 1.55 357 1.55
 225  0.667  0.417  0.167- 366 1.55 510 1.55 358 1.55 320 1.55
 226  0.666  0.417  0.667- 511 1.54 321 1.55 367 1.55 359 1.56
 227  0.667  0.667  0.167- 512 1.55 322 1.55 368 1.55 360 1.55
 228  0.667  0.668  0.667- 361 1.54 323 1.54 513 1.55 369 1.55
 229  0.667  0.917  0.167- 316 1.55 514 1.55 370 1.55 362 1.55
 230  0.667  0.917  0.667- 317 1.55 515 1.55 371 1.55 363 1.55
 231  0.833  0.167  0.167- 516 1.55 326 1.55 364 1.55 372 1.55
 232  0.833  0.167  0.667- 373 1.55 517 1.55 327 1.55 365 1.55
 233  0.833  0.417  0.167- 328 1.55 366 1.55 518 1.55 374 1.55
 234  0.833  0.417  0.667- 519 1.55 329 1.55 375 1.55 367 1.55
 235  0.833  0.667  0.167- 520 1.55 368 1.55 376 1.55 330 1.55
 236  0.834  0.667  0.667- 369 1.54 377 1.55 331 1.55 521 1.55
 237  0.833  0.917  0.167- 522 1.55 324 1.55 370 1.55 378 1.55
 238  0.833  0.917  0.667- 325 1.55 371 1.55 379 1.55 523 1.55
 239  0.083  0.042  0.167- 524 1.55 332 1.55 293 1.55 285 1.55
 240  0.083  0.042  0.667- 294 1.55 333 1.55 286 1.55 525 1.55
 241  0.083  0.292  0.167- 334 1.55 526 1.55 295 1.55 287 1.55
 242  0.083  0.292  0.667- 335 1.55 527 1.55 296 1.55 288 1.55
 243  0.083  0.542  0.167- 528 1.55 289 1.55 336 1.55 297 1.55
 244  0.083  0.542  0.667- 298 1.54 290 1.54 529 1.55 337 1.55
 245  0.083  0.792  0.167- 530 1.55 291 1.55 299 1.55 338 1.55
 246  0.083  0.792  0.667- 300 1.55 292 1.55 339 1.55 531 1.55
 247  0.250  0.042  0.167- 532 1.55 340 1.55 293 1.55 301 1.55
 248  0.250  0.042  0.667- 341 1.55 294 1.55 533 1.55 302 1.55
 249  0.250  0.292  0.167- 303 1.55 295 1.55 342 1.55 534 1.55
 250  0.250  0.292  0.667- 535 1.55 304 1.55 296 1.55 343 1.55
 251  0.250  0.542  0.166- 297 1.55 344 1.55 536 1.55 305 1.55
 252  0.249  0.542  0.666- 298 1.54 537 1.55 345 1.55 306 1.55
 253  0.250  0.792  0.167- 538 1.55 346 1.55 299 1.55 307 1.55
 254  0.250  0.792  0.667- 308 1.54 347 1.54 539 1.55 300 1.55
 255  0.417  0.042  0.167- 348 1.55 540 1.55 301 1.55 309 1.55
 256  0.417  0.042  0.667- 349 1.54 302 1.55 541 1.55 310 1.55
 257  0.417  0.292  0.167- 303 1.55 311 1.55 542 1.55 350 1.55
 258  0.416  0.291  0.667- 304 1.54 351 1.55 543 1.55 312 1.55
 259  0.417  0.542  0.166- 305 1.55 544 1.55 352 1.55 313 1.55
 260  0.417  0.792  0.167- 354 1.55 546 1.55 307 1.55 314 1.55
 261  0.417  0.792  0.667- 355 1.55 547 1.55 308 1.55 315 1.55
 262  0.583  0.042  0.167- 356 1.55 548 1.55 316 1.55 309 1.55
 263  0.583  0.042  0.667- 357 1.54 317 1.55 310 1.55 549 1.55
 264  0.583  0.292  0.167- 318 1.55 358 1.55 311 1.55 550 1.55
 265  0.584  0.291  0.667- 319 1.54 359 1.54 551 1.55 312 1.55
 266  0.583  0.542  0.167- 320 1.55 360 1.55 313 1.55 552 1.55
 267  0.583  0.792  0.167- 362 1.55 322 1.55 554 1.55 314 1.55
 268  0.583  0.792  0.667- 363 1.55 555 1.55 323 1.55 315 1.55
 269  0.750  0.042  0.167- 556 1.55 364 1.55 324 1.55 316 1.55
 270  0.750  0.042  0.667- 365 1.54 325 1.55 557 1.55 317 1.55
 271  0.750  0.292  0.167- 318 1.55 366 1.55 326 1.55 558 1.55
 272  0.750  0.292  0.667- 559 1.55 327 1.55 319 1.55 367 1.55
 273  0.750  0.542  0.167- 328 1.55 368 1.55 560 1.55 320 1.55
 274  0.751  0.542  0.667- 329 1.54 321 1.54 561 1.55 369 1.55
 275  0.750  0.792  0.167- 562 1.55 370 1.55 330 1.55 322 1.55
 276  0.750  0.792  0.667- 323 1.54 371 1.54 331 1.55 563 1.55
 277  0.917  0.042  0.167- 564 1.55 324 1.55 372 1.55 285 1.55
 278  0.917  0.042  0.667- 325 1.55 373 1.55 286 1.55 565 1.55
 279  0.917  0.292  0.167- 374 1.55 326 1.55 566 1.55 287 1.55
 280  0.917  0.292  0.667- 375 1.55 567 1.55 327 1.55 288 1.55
 281  0.917  0.542  0.167- 568 1.55 328 1.55 376 1.55 289 1.55
 282  0.917  0.542  0.667- 329 1.54 290 1.54 569 1.55 377 1.55
 283  0.917  0.792  0.167- 330 1.55 570 1.55 378 1.55 291 1.55
 284  0.917  0.792  0.667- 331 1.55 292 1.55 379 1.55 571 1.55
 285  0.000  0.000  0.125-   1 1.55 239 1.55 198 1.55 277 1.55
 286  0.000  0.000  0.625- 278 1.55 199 1.55   2 1.55 240 1.55
 287  1.000  0.250  0.125- 192 1.55   3 1.55 241 1.55 279 1.55
 288  0.000  0.250  0.625-   4 1.55 193 1.55 280 1.55 242 1.55
 289  0.000  0.500  0.125-   5 1.55 243 1.55 194 1.55 281 1.55
 290  0.000  0.500  0.625- 244 1.54 282 1.54   6 1.55 195 1.55
 291  0.000  0.750  0.125-   7 1.55 245 1.55 196 1.55 283 1.55
 292  0.000  0.750  0.625- 246 1.55 284 1.55   8 1.55 197 1.55
 293  0.167  0.000  0.125-   9 1.55 206 1.55 239 1.55 247 1.55
 294  0.167  0.000  0.625- 207 1.54 248 1.55 240 1.55  10 1.55
 295  0.167  0.250  0.125- 200 1.55  11 1.55 241 1.55 249 1.55
 296  0.167  0.250  0.625-  12 1.55 242 1.55 250 1.55 201 1.55
 297  0.167  0.500  0.125- 251 1.55  13 1.55 202 1.55 243 1.55
 298  0.166  0.500  0.625- 252 1.54 244 1.54  14 1.55 203 1.55
 299  0.167  0.750  0.125-  15 1.55 253 1.55 245 1.55 204 1.55
 300  0.167  0.750  0.625- 246 1.55  16 1.55 205 1.55 254 1.55
 301  0.333  1.000  0.125- 214 1.55  17 1.55 255 1.55 247 1.55
 302  0.333  1.000  0.625- 215 1.55 256 1.55  18 1.55 248 1.55
 303  0.333  0.250  0.125-  19 1.55 257 1.55 249 1.55 208 1.55
 304  0.333  0.250  0.625- 258 1.54 209 1.54  20 1.55 250 1.55
 305  0.333  0.500  0.124- 259 1.55 210 1.55  21 1.55 251 1.55
 306  0.334  0.501  0.625- 575 1.49  22 1.55 211 1.55 252 1.55
 307  0.333  0.750  0.125-  23 1.55 212 1.55 260 1.55 253 1.55
 308  0.333  0.750  0.625- 213 1.54 254 1.54  24 1.55 261 1.55
 309  0.500  1.000  0.125- 221 1.55  25 1.55 262 1.55 255 1.55
 310  0.500  1.000  0.625- 222 1.55  26 1.55 263 1.55 256 1.55
 311  0.500  0.250  0.125-  27 1.54 216 1.55 257 1.55 264 1.55
 312  0.500  0.249  0.625- 217 1.54  28 1.55 258 1.55 265 1.55
 313  0.500  0.500  0.125- 218 1.55 259 1.55 266 1.55  29 1.55
 314  0.500  0.750  0.125- 219 1.54  30 1.54 260 1.55 267 1.55
 315  0.500  0.750  0.625-  31 1.55 261 1.55 220 1.55 268 1.55
 316  0.667  1.000  0.125-  32 1.55 229 1.55 262 1.55 269 1.55
 317  0.667  1.000  0.625- 230 1.55 263 1.55  33 1.55 270 1.55
 318  0.667  0.250  0.125-  34 1.55 271 1.55 223 1.55 264 1.55
 319  0.667  0.249  0.625- 265 1.54 224 1.54  35 1.55 272 1.55
 320  0.667  0.500  0.125- 266 1.55 225 1.55  36 1.55 273 1.55
 321  0.668  0.501  0.626- 572 1.52 274 1.54  37 1.55 226 1.55
 322  0.667  0.750  0.125-  38 1.55 267 1.55 227 1.55 275 1.55
 323  0.667  0.750  0.625- 228 1.54 276 1.54  39 1.55 268 1.55
 324  0.833  0.000  0.125-  40 1.55 277 1.55 237 1.55 269 1.55
 325  0.833  0.000  0.625- 238 1.55 270 1.55 278 1.55  41 1.55
 326  0.833  0.250  0.125- 231 1.55 279 1.55  42 1.55 271 1.55
 327  0.833  0.250  0.625-  43 1.55 272 1.55 280 1.55 232 1.55
 328  0.833  0.500  0.125-  44 1.55 281 1.55 233 1.55 273 1.55
 329  0.834  0.500  0.625- 274 1.54 282 1.54  45 1.55 234 1.55
 330  0.833  0.750  0.125-  46 1.55 283 1.55 275 1.55 235 1.55
 331  0.833  0.750  0.625- 284 1.55  47 1.55 276 1.55 236 1.55
 332  0.083  0.125  0.125-  48 1.55 239 1.55 192 1.55 200 1.55
 333  0.083  0.125  0.625- 193 1.55 240 1.55  49 1.55 201 1.55
 334  0.083  0.375  0.125- 202 1.55  50 1.55 241 1.55 194 1.55
 335  0.084  0.375  0.625-  51 1.55 242 1.55 195 1.55 203 1.55
 336  0.083  0.625  0.125-  52 1.55 204 1.55 243 1.55 196 1.55
 337  0.083  0.625  0.625- 197 1.55 205 1.55  53 1.55 244 1.55
 338  0.083  0.875  0.125-  54 1.55 206 1.55 198 1.55 245 1.55
 339  0.083  0.875  0.625- 199 1.55 207 1.55 246 1.55  55 1.55
 340  0.250  0.125  0.125-  56 1.55 247 1.55 208 1.55 200 1.55
 341  0.250  0.125  0.625- 209 1.54 248 1.55  57 1.55 201 1.55
 342  0.250  0.375  0.125- 210 1.54  58 1.54 249 1.55 202 1.55
 343  0.251  0.375  0.625-  59 1.54 250 1.55 203 1.55 211 1.56
 344  0.250  0.625  0.125-  60 1.54 212 1.55 251 1.55 204 1.55
 345  0.250  0.625  0.625- 205 1.55  61 1.55 213 1.55 252 1.55
 346  0.250  0.875  0.125-  62 1.55 253 1.55 214 1.55 206 1.55
 347  0.250  0.875  0.625- 254 1.54 207 1.54 215 1.55  63 1.55
 348  0.417  0.125  0.125- 255 1.55  64 1.55 216 1.55 208 1.55
 349  0.417  0.125  0.625- 256 1.54 217 1.55  65 1.55 209 1.55
 350  0.417  0.375  0.125-  66 1.55 210 1.55 218 1.55 257 1.55
 351  0.419  0.374  0.627- 576 1.48 258 1.55  67 1.56 211 1.56
 352  0.417  0.625  0.125-  68 1.55 259 1.55 219 1.55 212 1.55
 353  0.416  0.625  0.625- 575 1.49  69 1.55 213 1.55 220 1.56
 354  0.417  0.875  0.125- 260 1.55  70 1.55 221 1.55 214 1.55
 355  0.417  0.875  0.625- 261 1.55  71 1.55 222 1.55 215 1.55
 356  0.583  0.125  0.125- 262 1.55  72 1.55 216 1.55 223 1.55
 357  0.583  0.125  0.625- 263 1.54 217 1.55  73 1.55 224 1.55
 358  0.583  0.375  0.125-  74 1.55 218 1.55 225 1.55 264 1.55
 359  0.582  0.374  0.627- 576 1.48 265 1.54  75 1.56 226 1.56
 360  0.583  0.625  0.125-  76 1.55 219 1.55 266 1.55 227 1.55
 361  0.585  0.626  0.626- 572 1.52 228 1.54 220 1.55  77 1.55
 362  0.583  0.875  0.125- 267 1.55  78 1.55 221 1.55 229 1.55
 363  0.583  0.875  0.625- 268 1.55  79 1.55 222 1.55 230 1.55
 364  0.750  0.125  0.125-  80 1.55 269 1.55 231 1.55 223 1.55
 365  0.750  0.125  0.625- 224 1.54 270 1.54  81 1.55 232 1.55
 366  0.750  0.375  0.125- 225 1.55  82 1.55 271 1.55 233 1.55
 367  0.749  0.375  0.625-  83 1.54 272 1.55 234 1.55 226 1.55
 368  0.750  0.625  0.125-  84 1.54 235 1.55 227 1.55 273 1.55
 369  0.750  0.625  0.625- 236 1.54  85 1.55 228 1.55 274 1.55
 370  0.750  0.875  0.125-  86 1.55 275 1.55 237 1.55 229 1.55
 371  0.750  0.875  0.625- 276 1.54 238 1.55  87 1.55 230 1.55
 372  0.917  0.125  0.125-  88 1.55 277 1.55 192 1.55 231 1.55
 373  0.917  0.125  0.625- 232 1.55 278 1.55  89 1.55 193 1.55
 374  0.917  0.375  0.125- 194 1.55 279 1.55  90 1.55 233 1.55
 375  0.917  0.375  0.625-  91 1.55 280 1.55 234 1.55 195 1.55
 376  0.917  0.625  0.125- 196 1.55  92 1.55 281 1.55 235 1.55
 377  0.917  0.625  0.625- 197 1.54 236 1.55  93 1.55 282 1.55
 378  0.917  0.875  0.125-  94 1.55 198 1.55 283 1.55 237 1.55
 379  0.917  0.875  0.625- 199 1.55 238 1.55 284 1.55  95 1.55
 380  1.000  0.083  0.458-  96 1.55   2 1.55  89 1.55  49 1.55
 381  0.000  0.083  0.958-  48 1.55   1 1.55  88 1.55  97 1.55
 382  1.000  0.333  0.458-   4 1.55  98 1.55  51 1.55  91 1.55
 383  0.000  0.333  0.958-  50 1.55  99 1.55   3 1.55  90 1.55
 384  1.000  0.583  0.458-  93 1.55 100 1.55  53 1.55   6 1.55
 385  0.000  0.583  0.958-  52 1.55 101 1.55  92 1.55   5 1.55
 386  0.000  0.833  0.458- 102 1.55  55 1.55  95 1.55   8 1.55
 387  0.000  0.833  0.958-  54 1.55  94 1.55 103 1.55   7 1.55
 388  0.167  0.083  0.458- 104 1.55  10 1.55  57 1.55  49 1.55
 389  0.167  0.083  0.958-   9 1.55 105 1.55  56 1.55  48 1.55
 390  0.167  0.333  0.458-  12 1.55 106 1.55  51 1.55  59 1.55
 391  0.167  0.333  0.958-  58 1.55 107 1.55  11 1.55  50 1.55
 392  0.167  0.583  0.458-  61 1.55 108 1.55  53 1.55  14 1.55
 393  0.167  0.583  0.958- 109 1.55  60 1.55  13 1.55  52 1.55
 394  0.167  0.833  0.458- 110 1.55  16 1.55  55 1.55  63 1.55
 395  0.167  0.833  0.958- 111 1.55  62 1.55  15 1.55  54 1.55
 396  0.333  0.083  0.458- 112 1.55  18 1.55  65 1.55  57 1.55
 397  0.333  0.083  0.958-  17 1.55 113 1.55  64 1.55  56 1.55
 398  0.334  0.334  0.459-  59 1.54  20 1.55 114 1.55  67 1.56
 399  0.333  0.333  0.958- 115 1.55  66 1.55  58 1.55  19 1.55
 400  0.333  0.583  0.458-  69 1.54  22 1.55  61 1.55 116 1.55
 401  0.333  0.583  0.958- 117 1.54  68 1.55  60 1.55  21 1.55
 402  0.333  0.833  0.458-  24 1.54 118 1.55  71 1.55  63 1.55
 403  0.333  0.833  0.958- 119 1.55  23 1.55  70 1.55  62 1.55
 404  0.500  0.083  0.458-  26 1.55 120 1.55  65 1.55  73 1.55
 405  0.500  0.083  0.958-  25 1.55 121 1.55  64 1.55  72 1.55
 406  0.500  0.334  0.459-  67 1.54  75 1.54 122 1.55  28 1.55
 407  0.500  0.333  0.959- 123 1.54  27 1.54  66 1.55  74 1.55
 408  0.499  0.583  0.458- 574 1.49  69 1.55 124 1.55  77 1.56
 409  0.500  0.583  0.957-  29 1.55  68 1.55 125 1.55  76 1.55
 410  0.500  0.833  0.458-  31 1.55 126 1.55  71 1.55  79 1.55
 411  0.500  0.833  0.958-  30 1.55 127 1.55  70 1.55  78 1.55
 412  0.667  0.083  0.458- 128 1.55  33 1.55  73 1.55  81 1.55
 413  0.667  0.083  0.958-  32 1.55 129 1.55  72 1.55  80 1.55
 414  0.666  0.334  0.459-  83 1.54  35 1.55 130 1.55  75 1.56
 415  0.667  0.333  0.958- 131 1.54  74 1.55  34 1.55  82 1.55
 416  0.666  0.583  0.459-  77 1.54  37 1.54 132 1.55  85 1.55
 417  0.667  0.584  0.959- 133 1.54  84 1.54  76 1.55  36 1.55
 418  0.667  0.833  0.458-  39 1.55 134 1.55  79 1.55  87 1.55
 419  0.667  0.833  0.958- 135 1.55  38 1.55  86 1.55  78 1.55
 420  0.833  0.083  0.458- 136 1.55  81 1.55  41 1.55  89 1.55
 421  0.833  0.083  0.958-  40 1.55 137 1.55  80 1.55  88 1.55
 422  0.833  0.333  0.459- 138 1.55  43 1.55  91 1.55  83 1.55
 423  0.833  0.333  0.958- 139 1.55  82 1.55  42 1.55  90 1.55
 424  0.833  0.583  0.458-  85 1.55 140 1.55  45 1.55  93 1.55
 425  0.834  0.583  0.959-  92 1.55 141 1.55  44 1.55  84 1.55
 426  0.833  0.833  0.458- 142 1.55  47 1.55  87 1.55  95 1.55
 427  0.833  0.833  0.958-  94 1.55 143 1.55  46 1.55  86 1.55
 428  0.083  0.208  0.458- 144 1.55  49 1.55  12 1.55   4 1.55
 429  0.083  0.208  0.958-  48 1.55  11 1.55 145 1.55   3 1.55
 430  0.083  0.458  0.458-  14 1.54 146 1.55  51 1.55   6 1.55
 431  0.083  0.458  0.958- 147 1.55  13 1.55  50 1.55   5 1.55
 432  0.083  0.708  0.458- 148 1.55  16 1.55   8 1.55  53 1.55
 433  0.083  0.708  0.958-  15 1.55 149 1.55  52 1.55   7 1.55
 434  0.083  0.958  0.458- 150 1.55  10 1.55  55 1.55   2 1.55
 435  0.083  0.958  0.958-   9 1.55 151 1.55  54 1.55   1 1.55
 436  0.250  0.208  0.458- 152 1.55  12 1.55  20 1.55  57 1.55
 437  0.250  0.208  0.958- 153 1.55  56 1.55  19 1.55  11 1.55
 438  0.250  0.459  0.458-  22 1.54  59 1.55 154 1.55  14 1.55
 439  0.250  0.458  0.958- 155 1.55  21 1.55  58 1.55  13 1.55
 440  0.250  0.708  0.458-  61 1.55 156 1.55  16 1.55  24 1.55
 441  0.250  0.708  0.958- 157 1.55  23 1.55  15 1.55  60 1.55
 442  0.250  0.958  0.458-  63 1.55 158 1.55  18 1.55  10 1.55
 443  0.250  0.958  0.958-  62 1.55 159 1.55  17 1.55   9 1.55
 444  0.417  0.208  0.458-  20 1.55  28 1.55 160 1.55  65 1.55
 445  0.417  0.208  0.959-  64 1.54 161 1.55  19 1.55  27 1.55
 446  0.417  0.459  0.458- 574 1.49  22 1.55  67 1.55 162 1.55
 447  0.417  0.458  0.957-  29 1.55  66 1.55  21 1.55 163 1.56
 448  0.417  0.708  0.458-  69 1.54 164 1.55  24 1.55  31 1.55
 449  0.417  0.708  0.958- 165 1.55  68 1.55  30 1.55  23 1.55
 450  0.417  0.958  0.458-  71 1.55 166 1.55  18 1.55  26 1.55
 451  0.417  0.958  0.958-  70 1.55 167 1.55  17 1.55  25 1.55
 452  0.583  0.208  0.458-  28 1.55 168 1.55  35 1.55  73 1.55
 453  0.583  0.208  0.959-  72 1.54 169 1.55  34 1.55  27 1.55
 454  0.581  0.459  0.460- 574 1.51  75 1.55  37 1.55 170 1.57
 455  0.583  0.458  0.958-  29 1.55  74 1.55  36 1.55 171 1.55
 456  0.583  0.708  0.458-  31 1.55 172 1.55  77 1.55  39 1.55
 457  0.583  0.708  0.958- 173 1.55  76 1.55  30 1.55  38 1.55
 458  0.583  0.958  0.458-  79 1.55 174 1.55  33 1.55  26 1.55
 459  0.583  0.958  0.958-  78 1.55 175 1.55  32 1.55  25 1.55
 460  0.750  0.208  0.458- 176 1.55  43 1.55  35 1.55  81 1.55
 461  0.750  0.208  0.958-  80 1.55 177 1.55  34 1.55  42 1.55
 462  0.749  0.459  0.459-  83 1.55 178 1.55  45 1.55  37 1.55
 463  0.750  0.458  0.958- 179 1.54  36 1.55  82 1.55  44 1.55
 464  0.750  0.708  0.458- 180 1.55  39 1.55  85 1.55  47 1.55
 465  0.750  0.708  0.959-  46 1.55 181 1.55  38 1.55  84 1.55
 466  0.750  0.958  0.458-  87 1.55 182 1.55  33 1.55  41 1.55
 467  0.750  0.958  0.958-  86 1.55 183 1.55  32 1.55  40 1.55
 468  0.917  0.208  0.458- 184 1.55  89 1.55   4 1.55  43 1.55
 469  0.917  0.208  0.958-  88 1.55  42 1.55 185 1.55   3 1.55
 470  0.917  0.458  0.458- 186 1.55  91 1.55  45 1.55   6 1.55
 471  0.917  0.458  0.958- 187 1.55  90 1.55  44 1.55   5 1.55
 472  0.917  0.708  0.458- 188 1.55  47 1.55   8 1.55  93 1.55
 473  0.917  0.708  0.958-   7 1.55 189 1.55  46 1.55  92 1.55
 474  0.917  0.958  0.458- 190 1.55  41 1.55  95 1.55   2 1.55
 475  0.917  0.958  0.958-  40 1.55  94 1.55 191 1.55   1 1.55
 476  1.000  0.167  0.292- 192 1.55  96 1.55 144 1.55 184 1.55
 477  0.000  0.167  0.792-  97 1.55 145 1.55 193 1.55 185 1.55
 478  1.000  0.417  0.292- 146 1.55 194 1.55  98 1.55 186 1.55
 479  0.000  0.417  0.792- 195 1.55  99 1.55 147 1.55 187 1.55
 480  0.000  0.667  0.292- 196 1.55 148 1.55 100 1.55 188 1.55
 481  0.000  0.667  0.792- 149 1.55 197 1.55 189 1.55 101 1.55
 482  0.000  0.917  0.292- 198 1.55 150 1.55 102 1.55 190 1.55
 483  0.000  0.917  0.792- 151 1.55 191 1.55 103 1.55 199 1.55
 484  0.167  0.167  0.292- 200 1.55 104 1.55 144 1.55 152 1.55
 485  0.167  0.167  0.792- 153 1.55 201 1.55 105 1.55 145 1.55
 486  0.167  0.417  0.292- 154 1.54 146 1.55 202 1.55 106 1.55
 487  0.167  0.417  0.792- 203 1.55 155 1.55 107 1.55 147 1.55
 488  0.167  0.667  0.292- 204 1.55 156 1.55 108 1.55 148 1.55
 489  0.167  0.667  0.792- 157 1.55 205 1.55 149 1.55 109 1.55
 490  0.167  0.917  0.292- 206 1.55 110 1.55 150 1.55 158 1.55
 491  0.167  0.917  0.792- 151 1.55 159 1.55 111 1.55 207 1.55
 492  0.333  0.167  0.292- 208 1.55 112 1.55 160 1.55 152 1.55
 493  0.333  0.166  0.792- 113 1.54 161 1.55 153 1.55 209 1.55
 494  0.333  0.417  0.291- 162 1.54 210 1.54 154 1.55 114 1.55
 495  0.334  0.417  0.791- 211 1.54 163 1.54 155 1.55 115 1.55
 496  0.333  0.667  0.291- 116 1.55 212 1.55 164 1.55 156 1.55
 497  0.333  0.667  0.791- 165 1.55 157 1.55 213 1.55 117 1.55
 498  0.333  0.917  0.292- 118 1.55 214 1.55 166 1.55 158 1.55
 499  0.333  0.917  0.792- 119 1.55 167 1.55 215 1.55 159 1.55
 500  0.500  0.167  0.292- 216 1.55 120 1.55 160 1.55 168 1.55
 501  0.500  0.166  0.792- 121 1.54 217 1.55 161 1.55 169 1.55
 502  0.500  0.417  0.292- 122 1.55 218 1.55 162 1.55 170 1.55
 503  0.500  0.415  0.790- 576 1.48 123 1.54 163 1.56 171 1.56
 504  0.500  0.667  0.291- 124 1.54 219 1.54 164 1.55 172 1.55
 505  0.500  0.666  0.791- 220 1.54 125 1.54 165 1.55 173 1.55
 506  0.500  0.917  0.292- 126 1.55 221 1.55 174 1.55 166 1.55
 507  0.500  0.917  0.792- 127 1.55 222 1.55 175 1.55 167 1.55
 508  0.667  0.167  0.292- 223 1.55 176 1.55 168 1.55 128 1.55
 509  0.667  0.166  0.792- 129 1.54 169 1.55 224 1.55 177 1.55
 510  0.666  0.417  0.292- 170 1.54 225 1.55 130 1.55 178 1.55
 511  0.667  0.417  0.792- 226 1.54 171 1.54 179 1.55 131 1.55
 512  0.667  0.667  0.292- 172 1.55 132 1.55 227 1.55 180 1.55
 513  0.667  0.667  0.792- 181 1.54 173 1.55 228 1.55 133 1.55
 514  0.667  0.917  0.292- 134 1.55 229 1.55 174 1.55 182 1.55
 515  0.667  0.917  0.792- 135 1.55 175 1.55 230 1.55 183 1.55
 516  0.833  0.167  0.292- 231 1.55 184 1.55 136 1.55 176 1.55
 517  0.833  0.167  0.792- 177 1.55 137 1.55 232 1.55 185 1.55
 518  0.833  0.417  0.292- 138 1.55 186 1.55 233 1.55 178 1.55
 519  0.833  0.417  0.792- 179 1.55 234 1.55 139 1.55 187 1.55
 520  0.833  0.667  0.292- 235 1.55 188 1.55 180 1.55 140 1.55
 521  0.833  0.667  0.792- 189 1.55 236 1.55 181 1.55 141 1.55
 522  0.833  0.917  0.292- 237 1.55 190 1.55 142 1.55 182 1.55
 523  0.833  0.917  0.792- 191 1.55 143 1.55 183 1.55 238 1.55
 524  0.083  0.042  0.292- 239 1.55 150 1.55 104 1.55  96 1.55
 525  0.083  0.042  0.792- 105 1.55 151 1.55 240 1.55  97 1.55
 526  0.083  0.292  0.292- 144 1.55 241 1.55 106 1.55  98 1.55
 527  0.083  0.292  0.792- 242 1.55 107 1.55 145 1.55  99 1.55
 528  0.083  0.542  0.292- 108 1.55 243 1.55 146 1.55 100 1.55
 529  0.083  0.542  0.792- 101 1.55 109 1.55 244 1.55 147 1.55
 530  0.083  0.792  0.292- 245 1.55 110 1.55 148 1.55 102 1.55
 531  0.083  0.792  0.792- 111 1.55 246 1.55 103 1.55 149 1.55
 532  0.250  0.042  0.292- 247 1.55 158 1.55 104 1.55 112 1.55
 533  0.250  0.042  0.792- 159 1.55 113 1.55 248 1.55 105 1.55
 534  0.250  0.292  0.292- 152 1.55 106 1.55 114 1.55 249 1.55
 535  0.250  0.292  0.792- 250 1.55 115 1.55 107 1.55 153 1.55
 536  0.250  0.542  0.291- 116 1.55 154 1.55 251 1.55 108 1.55
 537  0.250  0.542  0.791- 155 1.55 109 1.55 252 1.55 117 1.55
 538  0.250  0.792  0.292- 253 1.55 156 1.55 118 1.55 110 1.55
 539  0.250  0.792  0.792- 111 1.55 119 1.55 254 1.55 157 1.55
 540  0.417  0.042  0.292- 255 1.55 166 1.55 112 1.55 120 1.55
 541  0.417  0.042  0.792- 167 1.55 256 1.55 113 1.55 121 1.55
 542  0.417  0.292  0.292- 114 1.55 122 1.55 160 1.55 257 1.55
 543  0.417  0.291  0.792- 161 1.54 115 1.55 258 1.55 123 1.55
 544  0.417  0.542  0.291- 259 1.55 116 1.55 162 1.55 124 1.55
 545  0.417  0.541  0.789- 575 1.51 163 1.55 125 1.55 117 1.57
 546  0.417  0.792  0.292- 164 1.54 260 1.55 118 1.55 126 1.55
 547  0.417  0.792  0.792- 261 1.55 165 1.55 119 1.55 127 1.55
 548  0.583  0.042  0.292- 262 1.55 174 1.55 128 1.55 120 1.55
 549  0.583  0.042  0.792- 175 1.55 263 1.55 121 1.55 129 1.55
 550  0.583  0.292  0.292- 130 1.55 122 1.55 168 1.55 264 1.55
 551  0.584  0.291  0.792- 169 1.54 131 1.55 265 1.55 123 1.55
 552  0.583  0.542  0.292- 132 1.55 266 1.55 124 1.55 170 1.55
 553  0.585  0.542  0.792- 572 1.51 133 1.54 125 1.55 171 1.55
 554  0.583  0.792  0.292- 172 1.55 134 1.55 267 1.55 126 1.55
 555  0.583  0.792  0.792- 268 1.55 173 1.55 127 1.55 135 1.55
 556  0.750  0.042  0.292- 269 1.55 182 1.55 136 1.55 128 1.55
 557  0.750  0.042  0.792- 183 1.55 129 1.55 270 1.55 137 1.55
 558  0.750  0.292  0.292- 138 1.55 176 1.55 271 1.55 130 1.55
 559  0.750  0.292  0.792- 131 1.55 272 1.55 177 1.55 139 1.55
 560  0.750  0.542  0.292- 178 1.55 132 1.55 273 1.55 140 1.55
 561  0.751  0.542  0.792- 141 1.54 179 1.55 274 1.55 133 1.55
 562  0.750  0.792  0.292- 275 1.55 134 1.55 180 1.55 142 1.55
 563  0.750  0.792  0.792- 143 1.55 135 1.55 181 1.55 276 1.55
 564  0.917  0.042  0.292- 277 1.55 136 1.55 190 1.55  96 1.55
 565  0.917  0.042  0.792- 137 1.55 191 1.55 278 1.55  97 1.55
 566  0.917  0.292  0.292- 184 1.55 279 1.55  98 1.55 138 1.55
 567  0.917  0.292  0.792- 139 1.55 280 1.55 185 1.55  99 1.55
 568  0.917  0.542  0.292- 281 1.55 186 1.55 100 1.55 140 1.55
 569  0.917  0.542  0.792- 101 1.55 141 1.55 187 1.55 282 1.55
 570  0.917  0.792  0.292- 283 1.55 142 1.55 102 1.55 188 1.55
 571  0.917  0.792  0.792- 103 1.55 143 1.55 284 1.55 189 1.55
 572  0.589  0.544  0.670- 573 1.09 553 1.51 321 1.52 361 1.52
 573  0.530  0.516  0.640- 572 1.09
 574  0.498  0.501  0.492- 446 1.49 408 1.49 454 1.51
 575  0.410  0.545  0.667- 306 1.49 353 1.49 545 1.51
 576  0.500  0.409  0.671- 503 1.48 359 1.48 351 1.48
 
  LATTYP: Found a simple monoclinic cell.
 ALAT       =    12.3703241348
 B/A-ratio  =     1.2248453018
 C/A-ratio  =     1.4141600350
 COS(beta)  =    -0.0000282295
  
  Lattice vectors:
  
 A1 = (   0.0000000000,  -0.0003492082,  12.3703241299)
 A2 = (  15.1517333984,   0.0000000000,   0.0000000000)
 A3 = (   0.0000000000,  17.4936180115,   0.0000000000)


Analysis of symmetry for initial positions (statically):
=====================================================================
 Subroutine PRICEL returns:
 Original cell was already a primitive cell.
 

 Routine SETGRP: Setting up the symmetry group for a 
 simple monoclinic supercell.


 Subroutine GETGRP returns: Found  1 space group operations
 (whereof  1 operations were pure point group operations)
 out of a pool of  4 trial point group operations.


The static configuration has the point symmetry C_1 .


Analysis of symmetry for dynamics (positions and initial velocities):
=====================================================================
 Subroutine PRICEL returns:
 Original cell was already a primitive cell.
 

 Routine SETGRP: Setting up the symmetry group for a 
 simple monoclinic supercell.


 Subroutine GETGRP returns: Found  1 space group operations
 (whereof  1 operations were pure point group operations)
 out of a pool of  4 trial point group operations.


The dynamic configuration has the point symmetry C_1 .


Analysis of structural, dynamic, and magnetic symmetry:
=====================================================================
 Subroutine PRICEL returns:
 Original cell was already a primitive cell.
 

 Routine SETGRP: Setting up the symmetry group for a 
 simple monoclinic supercell.


 Subroutine GETGRP returns: Found  1 space group operations
 (whereof  1 operations were pure point group operations)
 out of a pool of  4 trial point group operations.


The overall configuration has the point symmetry C_1 .


 Subroutine INISYM returns: Found  1 space group operations
 (whereof  1 operations are pure point group operations),
 and found     1 'primitive' translations


----------------------------------------------------------------------------------------

                                     Primitive cell                                     

  volume of cell :    3278.8612

  direct lattice vectors                    reciprocal lattice vectors
    15.151733398  0.000000000  0.000000000     0.065999049  0.000000000  0.000000000
     0.000000000 17.493618012  0.000000000     0.000000000  0.057163704  0.000001614
     0.000000000 -0.000349208 12.370324130     0.000000000  0.000000000  0.080838626

  length of vectors
    15.151733398 17.493618012 12.370324135     0.065999049  0.057163704  0.080838626

  position of ions in fractional coordinates (direct lattice)
     0.000022064  0.000034704  0.000052229
     0.000001660  0.000060547  0.500001572
     0.000022965  0.250024856  0.000046023
     0.999994135  0.250057807  0.500017014
     0.000067321  0.499992266  0.000009389
     0.999934338  0.500004278  0.500013131
     0.000055715  0.750012274  0.000063858
     0.000011460  0.750033960  0.500051656
     0.166663275  0.000007986  0.000043677
     0.166634574  0.000072118  0.500003239
     0.166701615  0.250011081  0.000011792
     0.166712719  0.250079434  0.500026067
     0.166768355  0.499984652  0.999836476
     0.166562273  0.500018764  0.499903617
     0.166710893  0.749995137  0.000000854
     0.166649737  0.750070017  0.499959463
     0.333329963  0.999946840  0.000053071
     0.333320299  0.999999380  0.500016324
     0.333374800  0.249944146  0.000041736
     0.333429306  0.250058192  0.500174253
     0.333552823  0.499935057  0.999288113
     0.333298163  0.500122608  0.499833382
     0.333383854  0.749968875  0.999870077
     0.333271188  0.750167019  0.499871916
     0.500008485  0.999930066  0.000058326
     0.499997014  0.999966294  0.500031109
     0.500036261  0.249738491  0.000449508
     0.499983047  0.249992237  0.500156645
     0.500060243  0.499921209  0.999394166
     0.500030022  0.750018668  0.999799987
     0.499939063  0.749910241  0.499982077
     0.666688771  0.999939035  0.000088413
     0.666676699  0.999979709  0.500039424
     0.666699059  0.249916237  0.000188207
     0.666534393  0.250050774  0.500276719
     0.666662969  0.499935767  0.999793083
     0.665967849  0.500303355  0.500862368
     0.666708071  0.749994620  0.000040855
     0.666646860  0.750041045  0.500046383
     0.833375326  0.999999058  0.000072110
     0.833364420  0.000044541  0.500018264
     0.833343311  0.249996584  0.000119057
     0.833261373  0.250072855  0.500096316
     0.833383343  0.499994678  0.000125110
     0.833205347  0.500023269  0.500159226
     0.833425240  0.750039416  0.000152665
     0.833346170  0.750037603  0.500071097
     0.083342203  0.125028966  0.000041245
     0.083333741  0.125074850  0.500003622
     0.083373293  0.374995780  0.999923725
     0.083402083  0.375051769  0.500014051
     0.083403461  0.624992294  0.000017645
     0.083315808  0.625021092  0.499957648
     0.083357592  0.875021130  0.000048572
     0.083319488  0.875061758  0.500001692
     0.250005990  0.124971908  0.000055627
     0.250010188  0.125026037  0.500036001
     0.250026364  0.374946998  0.999746325
     0.250312090  0.375185156  0.500107360
     0.250032745  0.624986376  0.999977992
     0.249963430  0.625063281  0.499795780
     0.250017332  0.874980491  0.999990292
     0.249944502  0.875098673  0.499960573
     0.416662523  0.124873546  0.000166215
     0.416669293  0.124967736  0.500065777
     0.416789532  0.374904590  0.999711717
     0.417622456  0.375740218  0.500959176
     0.416722381  0.624943522  0.999569918
     0.416560700  0.625122400  0.499762493
     0.416682681  0.874975006  0.999953208
     0.416659989  0.874991166  0.499968057
     0.583359291  0.124858938  0.000209293
     0.583329645  0.124958224  0.500084521
     0.583351033  0.374861552  0.999993007
     0.582101259  0.375696733  0.501360463
     0.583386537  0.624973939  0.999811648
     0.583141979  0.624745257  0.500446782
     0.583352266  0.874967635  0.000003299
     0.583317593  0.874973241  0.500003113
     0.750029852  0.124953152  0.000111680
     0.749986670  0.125010315  0.500060235
     0.750057529  0.374947890  0.000079608
     0.749543579  0.375171072  0.500356349
     0.750242939  0.625079345  0.000492274
     0.749934579  0.625028888  0.500155152
     0.750053758  0.874988529  0.000069154
     0.750040434  0.875038069  0.500025959
     0.916691500  0.125023419  0.000064658
     0.916662161  0.125064304  0.500013718
     0.916700979  0.374999708  0.000056851
     0.916548438  0.375047633  0.500097661
     0.916794947  0.625013827  0.000182692
     0.916656260  0.625008539  0.500069529
     0.916731011  0.875031850  0.000087174
     0.916694260  0.875047541  0.500029757
     0.999995626  0.083393222  0.333342514
     0.000026714  0.083372176  0.833364701
     0.999967894  0.333383845  0.333397068
     0.000062132  0.333337418  0.833321522
     0.999979011  0.583328648  0.333364641
     0.000124411  0.583333671  0.833406027
     0.000012860  0.833363799  0.333382786
     0.000049873  0.833362096  0.833380495
     0.166673609  0.083394775  0.333336126
     0.166678944  0.083332250  0.833361038
     0.166747358  0.333408194  0.333397832
     0.166759741  0.333322512  0.833190715
     0.166660744  0.583329735  0.333209075
     0.166780838  0.583306713  0.833228451
     0.166674066  0.833378085  0.333311664
     0.166689435  0.833360582  0.833346373
     0.333318117  0.083357368  0.333372813
     0.333298702  0.083199012  0.833415605
     0.333511595  0.333519616  0.333583806
     0.333438445  0.333229881  0.833221547
     0.333251494  0.583405463  0.333130009
     0.333471825  0.583277940  0.833349281
     0.333304936  0.833411692  0.333242001
     0.333351596  0.833302498  0.833253501
     0.499995157  0.083325761  0.333425820
     0.500022310  0.083165952  0.833436724
     0.499937775  0.333490091  0.333542468
     0.500183664  0.332418968  0.834546158
     0.499819179  0.584134921  0.332440935
     0.500364024  0.583127315  0.832223447
     0.499985236  0.833328894  0.333328056
     0.500023863  0.833305610  0.833246140
     0.666665552  0.083349143  0.333403409
     0.666759228  0.083166621  0.833451316
     0.666319237  0.333559176  0.333855154
     0.666802210  0.333148250  0.833518900
     0.666497723  0.583346427  0.333530306
     0.667394216  0.583543270  0.834629121
     0.666670966  0.833358204  0.333349316
     0.666734637  0.833330303  0.833341062
     0.833313038  0.083389430  0.333359262
     0.833377580  0.083307604  0.833384903
     0.833152736  0.333428676  0.333549649
     0.833390923  0.333287180  0.833384438
     0.833240759  0.583320802  0.333447539
     0.833626808  0.583359465  0.833599668
     0.833335858  0.833351595  0.333385556
     0.833433830  0.833396403  0.833426694
     0.083357358  0.208395463  0.333373144
     0.083381227  0.208355387  0.833345950
     0.083298203  0.458329833  0.333288084
     0.083467030  0.458334376  0.833255547
     0.083355277  0.708349775  0.333374608
     0.083432026  0.708336727  0.833334511
     0.083347433  0.958388421  0.333344754
     0.083359607  0.958368477  0.833379561
     0.250023260  0.208400382  0.333435601
     0.250032420  0.208282189  0.833380408
     0.249920628  0.458341054  0.333143072
     0.250226871  0.458343963  0.833057603
     0.249998869  0.708391257  0.333255695
     0.250101913  0.708338433  0.833247486
     0.249983621  0.958388014  0.333349504
     0.249986628  0.958308746  0.833385005
     0.416649462  0.208384735  0.333450863
     0.416628451  0.208005913  0.833581017
     0.415811995  0.458106886  0.332443840
     0.417211503  0.458132543  0.831187523
     0.416610756  0.708468271  0.333104202
     0.416757814  0.708251277  0.833060802
     0.416636536  0.958336818  0.333357650
     0.416651300  0.958263420  0.833351982
     0.583322374  0.208385182  0.333497907
     0.583497864  0.207952313  0.833670211
     0.583418140  0.458292988  0.333353847
     0.583470215  0.458204113  0.831990118
     0.583273904  0.708363227  0.333304781
     0.583436387  0.708321870  0.833247802
     0.583345954  0.958324365  0.333383691
     0.583379352  0.958256787  0.833373276
     0.749935301  0.208415821  0.333501148
     0.750066078  0.208229435  0.833472209
     0.749764938  0.458388696  0.333582255
     0.750158248  0.458334281  0.833492734
     0.749953320  0.708343859  0.333455890
     0.750189066  0.708465824  0.833549464
     0.750010508  0.958363307  0.333396052
     0.750068506  0.958297277  0.833414707
     0.916616319  0.208399442  0.333399418
     0.916690152  0.208337856  0.833388685
     0.916575511  0.458344344  0.333415834
     0.916740134  0.458327158  0.833384458
     0.916660592  0.708342581  0.333465601
     0.916760070  0.708364789  0.833441302
     0.916655919  0.958375343  0.333363248
     0.916707572  0.958371095  0.833389959
     0.999995018  0.166715618  0.166702765
     0.000021477  0.166723119  0.666663393
     0.999983644  0.416672365  0.166668849
     0.000050884  0.416685299  0.666672818
     0.000047518  0.666668622  0.166748288
     0.000065418  0.666707276  0.666668174
     0.000016375  0.916700605  0.166707170
     0.000031131  0.916734815  0.666679714
     0.166675644  0.166713633  0.166715465
     0.166692789  0.166689861  0.666683149
     0.166653780  0.416658142  0.166517046
     0.167018355  0.416750291  0.666598768
     0.166685184  0.666669135  0.166671190
     0.166643383  0.666740690  0.666520172
     0.166674110  0.916692895  0.166685006
     0.166591627  0.916792475  0.666662483
     0.333343290  0.166679434  0.166760019
     0.333223432  0.166376912  0.666742350
     0.333137418  0.416575899  0.166148671
     0.334730015  0.417181353  0.666756955
     0.333352921  0.666684261  0.166460081
     0.333044789  0.667574553  0.666147233
     0.333329808  0.916679650  0.166654449
     0.333302547  0.916681698  0.666644712
     0.499997951  0.166617255  0.166866423
     0.500031841  0.166327686  0.666757283
     0.499978195  0.416682618  0.166556254
     0.499980694  0.666892055  0.166192143
     0.500135197  0.666280969  0.666499694
     0.499999510  0.916647364  0.166674915
     0.500007132  0.916648896  0.666630809
     0.666653165  0.166672948  0.166825400
     0.666860061  0.166297326  0.666791921
     0.666682947  0.416635660  0.166660574
     0.665751501  0.417042965  0.667341973
     0.666649760  0.666671199  0.166726817
     0.667233478  0.667604665  0.666669416
     0.666679139  0.916661611  0.166718279
     0.666719073  0.916662513  0.666685508
     0.833315843  0.166711770  0.166773698
     0.833368486  0.166651537  0.666720557
     0.833279037  0.416689763  0.166804261
     0.833145011  0.416693805  0.666811917
     0.833401044  0.666693000  0.166913292
     0.833544898  0.666770411  0.666745168
     0.833356697  0.916687115  0.166733589
     0.833450782  0.916766321  0.666694810
     0.083347837  0.041710199  0.166683918
     0.083333378  0.041740866  0.666664566
     0.083360317  0.291709205  0.166696270
     0.083397148  0.291695698  0.666617760
     0.083365994  0.541652453  0.166614084
     0.083118904  0.541634331  0.666577384
     0.083372435  0.791678091  0.166698311
     0.083343181  0.791732726  0.666657477
     0.249997977  0.041683438  0.166666404
     0.249943513  0.041608181  0.666660043
     0.250058545  0.291714168  0.166690816
     0.250188712  0.291663934  0.666617142
     0.250047621  0.541645864  0.166383539
     0.249052663  0.541500692  0.666159970
     0.250012786  0.791678176  0.166594787
     0.249849216  0.792007606  0.666547212
     0.416648294  0.041636207  0.166739414
     0.416641664  0.041553606  0.666690625
     0.416668420  0.291704923  0.166726529
     0.416330486  0.290732703  0.666856079
     0.416613891  0.541699214  0.166266983
     0.416655554  0.791708742  0.166519739
     0.416626484  0.791692893  0.666543530
     0.583342820  0.041628519  0.166759955
     0.583378542  0.041539541  0.666703360
     0.583320238  0.291700116  0.166844517
     0.583919545  0.290549432  0.667031010
     0.583308271  0.541676418  0.166529938
     0.583345758  0.791684487  0.166618581
     0.583372964  0.791692646  0.666617345
     0.750002047  0.041671012  0.166706668
     0.750090272  0.041571826  0.666676863
     0.749903918  0.291727412  0.166878443
     0.749940347  0.291558264  0.666775619
     0.749935116  0.541656961  0.166728310
     0.751197765  0.541586604  0.666835924
     0.750019874  0.791669231  0.166716301
     0.750220607  0.791981554  0.666679477
     0.916660862  0.041706536  0.166698380
     0.916696491  0.041718215  0.666671197
     0.916621220  0.291712893  0.166762465
     0.916662600  0.291671834  0.666682143
     0.916660526  0.541664776  0.166739931
     0.916950075  0.541646099  0.666725624
     0.916698295  0.791685676  0.166755658
     0.916738427  0.791736519  0.666701354
     0.000009962  0.000039721  0.125022784
     0.000015479  0.000060892  0.624998202
     0.999995179  0.250047641  0.125043625
     0.000024884  0.250053130  0.624984226
     0.000016674  0.500009938  0.124980989
     0.000007351  0.500058403  0.625025783
     0.000042962  0.750017690  0.125047191
     0.000039443  0.750060630  0.625032608
     0.166659700  0.000021446  0.125002211
     0.166593931  0.000047870  0.624994088
     0.166703010  0.250038918  0.125028063
     0.166743692  0.250065179  0.624981585
     0.166710440  0.499998223  0.124804473
     0.166199302  0.500121397  0.624913545
     0.166678233  0.750004613  0.124959337
     0.166610242  0.750122751  0.624943145
     0.333328090  0.999978753  0.125002999
     0.333310741  0.999947152  0.625000369
     0.333372116  0.250010600  0.125030367
     0.333262570  0.249558253  0.625118035
     0.333425095  0.499939617  0.124420095
     0.333692721  0.500798253  0.624798368
     0.333345334  0.750008942  0.124822943
     0.332951614  0.750473247  0.624884181
     0.499999435  0.999955915  0.125038537
     0.500008506  0.999924414  0.625016996
     0.499999078  0.249904244  0.125241824
     0.500056946  0.249465618  0.625148509
     0.499985548  0.499990270  0.124654901
     0.500004343  0.750082489  0.124656557
     0.499965766  0.749785098  0.624962494
     0.666670877  0.999968098  0.125048463
     0.666703659  0.999931930  0.625017290
     0.666640006  0.250005006  0.125152878
     0.666867745  0.249443774  0.625225091
     0.666576538  0.499951219  0.124844717
     0.667805206  0.500726614  0.625962117
     0.666679996  0.750004020  0.124990625
     0.667090262  0.750449819  0.625100553
     0.833356136  0.000015658  0.125034797
     0.833422861  0.000018665  0.625006562
     0.833285052  0.250041732  0.125135123
     0.833321102  0.250019603  0.625060838
     0.833313469  0.500018501  0.125073902
     0.833865578  0.500115228  0.625201408
     0.833395267  0.750026331  0.125106691
     0.833466898  0.750127752  0.625057647
     0.083333173  0.125043970  0.125025244
     0.083335356  0.125063233  0.624998612
     0.083331632  0.375020673  0.124914057
     0.083530383  0.375015755  0.624970610
     0.083366687  0.625009878  0.124991647
     0.083307346  0.625055770  0.624956852
     0.083341668  0.875020630  0.125022182
     0.083308660  0.875071759  0.625002957
     0.250006325  0.125016685  0.125036508
     0.249953781  0.124878476  0.625035167
     0.249956192  0.374974991  0.124621311
     0.250905206  0.375139620  0.624943084
     0.249996156  0.625023418  0.124859334
     0.249879714  0.625133367  0.624758224
     0.250002284  0.875006689  0.124959110
     0.249846592  0.875186206  0.624976599
     0.416669688  0.124940596  0.125121139
     0.416655144  0.124793430  0.625062791
     0.416655862  0.375024870  0.124715848
     0.418677527  0.374363254  0.626753109
     0.416699021  0.625034547  0.124526131
     0.416132582  0.624593841  0.624744544
     0.416663225  0.874997261  0.124918725
     0.416676584  0.874983044  0.624963356
     0.583326005  0.124932778  0.125157425
     0.583388834  0.124770925  0.625080801
     0.583324909  0.375014566  0.124950222
     0.581654893  0.374043647  0.627067446
     0.583296581  0.625035741  0.124745869
     0.584618218  0.625618720  0.625671206
     0.583346177  0.874983861  0.124983127
     0.583339032  0.874976726  0.624995791
     0.749996478  0.125007630  0.125090661
     0.750096678  0.124832675  0.625061198
     0.749979413  0.375015768  0.125017000
     0.749305669  0.375001991  0.625207285
     0.750113275  0.625069607  0.125239992
     0.750357745  0.625206948  0.625137557
     0.750030209  0.875002853  0.125046427
     0.750168944  0.875152040  0.625036028
     0.916666731  0.125042125  0.125046290
     0.916699635  0.125044514  0.625007750
     0.916639671  0.375035140  0.125054546
     0.916569014  0.374996935  0.625055910
     0.916734434  0.625029235  0.125137524
     0.916810145  0.625062480  0.625070757
     0.916709651  0.875024067  0.125061833
     0.916744725  0.875067666  0.625029234
     0.999997408  0.083397066  0.458331508
     0.000018060  0.083364828  0.958374631
     0.999978544  0.333398778  0.458391069
     0.000039123  0.333348061  0.958318308
     0.999970480  0.583363359  0.458353438
     0.000092187  0.583359467  0.958386022
     0.000007732  0.833378883  0.458365701
     0.000047902  0.833359453  0.958387011
     0.166664129  0.083396040  0.458319799
     0.166667741  0.083330832  0.958359809
     0.166850357  0.333439251  0.458415371
     0.166718777  0.333319160  0.958144215
     0.166652231  0.583381144  0.458209182
     0.166727490  0.583346668  0.958209266
     0.166635308  0.833395829  0.458296625
     0.166678171  0.833339019  0.958329613
     0.333330029  0.083326079  0.458357182
     0.333323643  0.083230862  0.958408013
     0.333838732  0.333678225  0.459088283
     0.333406615  0.333265129  0.958135927
     0.333350014  0.583399164  0.458176692
     0.333298478  0.583371570  0.958014179
     0.333267990  0.833399252  0.458221432
     0.333350863  0.833302342  0.958229522
     0.499998804  0.083288891  0.458397890
     0.500012283  0.083209541  0.958439655
     0.499895792  0.333612584  0.458725987
     0.500078555  0.332853417  0.958804311
     0.499458592  0.582904613  0.458023419
     0.500027570  0.583236840  0.957498660
     0.499987030  0.833253178  0.458332279
     0.500021283  0.833318345  0.958212136
     0.666665322  0.083312351  0.458379736
     0.666707014  0.083219040  0.958446032
     0.665992125  0.333719756  0.459290105
     0.666734838  0.333228745  0.958408401
     0.666333038  0.583358194  0.458680412
     0.667146550  0.583518509  0.958803002
     0.666679940  0.833325033  0.458326419
     0.666721395  0.833317210  0.958335254
     0.833328509  0.083382521  0.458333285
     0.833371932  0.083319154  0.958388013
     0.833063157  0.333454506  0.458545000
     0.833374362  0.333309795  0.958365045
     0.833237196  0.583365551  0.458442213
     0.833527185  0.583387172  0.958565296
     0.833365637  0.833362549  0.458367874
     0.833430711  0.833366417  0.958421116
     0.083370113  0.208408380  0.458349077
     0.083370079  0.208353962  0.958354635
     0.083316056  0.458385075  0.458268303
     0.083423316  0.458336988  0.958233170
     0.083340909  0.708378375  0.458338386
     0.083394390  0.708344600  0.958334622
     0.083332998  0.958390147  0.458325237
     0.083352912  0.958356509  0.958372403
     0.250067614  0.208418974  0.458400012
     0.250027427  0.208300421  0.958367068
     0.250137946  0.458543696  0.458249581
     0.250158944  0.458305175  0.957962158
     0.249967102  0.708406151  0.458241819
     0.250032201  0.708331311  0.958228956
     0.249957554  0.958386153  0.458327788
     0.249991969  0.958305852  0.958368174
     0.416680611  0.208346308  0.458440554
     0.416670293  0.208127644  0.958539959
     0.417015900  0.459144190  0.458087358
     0.417102372  0.458164442  0.957082099
     0.416534738  0.708285996  0.458183477
     0.416712697  0.708295007  0.957996377
     0.416645417  0.958304438  0.458339017
     0.416653019  0.958277926  0.958332690
     0.583293246  0.208344074  0.458478883
     0.583397998  0.208101040  0.958612927
     0.581468985  0.459316437  0.459874910
     0.583145632  0.458100821  0.957586417
     0.583243617  0.708119713  0.458443028
     0.583390615  0.708330195  0.958181394
     0.583345801  0.958291902  0.458360116
     0.583365515  0.958273992  0.958363910
     0.749910266  0.208420784  0.458442515
     0.750035366  0.208275622  0.958460432
     0.749413323  0.458533426  0.458690348
[...]
 196       0.005    -0.001     0.009      -0.695
 197       0.004     0.001     0.022      -0.132
 198      -0.001     0.000     0.002       0.923
 199      -0.002     0.001     0.004       0.881
 200      -0.002    -0.001     0.003       0.346
 201       0.001    -0.001     0.010      -0.164
 202      -0.006    -0.001    -0.016      -0.346
 203       0.017     0.016     0.060      -0.024
 204       0.030     0.017     0.053      -0.239
 205       0.103     0.100     0.191      -0.018
 206      -0.002    -0.001     0.003       0.419
 207       0.015     0.012     0.027      -0.123
 208       0.005    -0.001    -0.005       1.069
 209      -0.006    -0.005     0.011       0.128
 210       0.061     0.051     0.144      -0.070
 211       0.611     0.597     0.854      -0.016
 212       0.020     0.012     0.044      -0.180
 213       1.782     1.754     2.544      -0.011
 214       0.004    -0.000    -0.005       0.983
 215       0.002     0.001     0.019      -0.044
 216      -0.005     0.002     0.008       0.828
 217      -0.007    -0.004     0.015       0.163
 218       0.070     0.068     0.161      -0.013
 219       0.067     0.058     0.155      -0.060
 220       0.570     0.557     0.813      -0.017
 221      -0.005    -0.000     0.006       0.841
 222      -0.008    -0.006     0.010       0.176
 223      -0.004    -0.001     0.005       0.556
 224      -0.006    -0.005     0.008       0.071
 225       0.162     0.151     0.261      -0.042
 226       0.037    -0.032    -0.042       1.645
 227      -0.010    -0.003     0.010       0.694
 228      -0.019    -0.013     0.035       0.181
 229      -0.003    -0.001     0.004       0.476
 230      -0.004    -0.003     0.008       0.092
 231      -0.001    -0.001     0.003       0.141
 232       0.004    -0.001    -0.004       1.305
 233       0.005    -0.003     0.014      -0.506
 234      -0.009    -0.006     0.016       0.183
 235       0.005    -0.002     0.009      -0.754
 236      -0.004    -0.001     0.016       0.165
 237      -0.002    -0.000     0.002       0.593
 238       0.003    -0.000    -0.004       0.902
 239      -0.002    -0.001     0.002       0.361
 240      -0.002     0.001     0.005       0.650
 241      -0.003     0.000     0.004       0.762
 242       0.006    -0.006    -0.007       1.604
 243       0.006     0.003    -0.008       0.421
 244       0.094     0.087     0.175      -0.043
 245       0.003    -0.000     0.006      -0.497
 246       0.005     0.004     0.020      -0.063
 247      -0.003    -0.001     0.004       0.430
 248      -0.003    -0.002     0.007       0.100
 249       0.004    -0.003     0.010      -0.666
 250       0.008     0.007     0.038      -0.033
 251       0.027     0.017     0.050      -0.198
 252       1.703     1.674     2.452      -0.012
 253       0.004     0.002    -0.005       0.259
 254       0.124     0.117     0.197      -0.035
 255      -0.005    -0.001     0.006       0.643
 256      -0.005    -0.004     0.009       0.155
 257      -0.010    -0.002     0.011       0.695
 258      -0.011    -0.005     0.042       0.147
 259       0.079     0.076     0.187      -0.013
 260      -0.005     0.000    -0.014      -0.408
 261       0.016     0.014     0.059      -0.039
 262      -0.004    -0.001     0.005       0.530
 263      -0.003    -0.003     0.009       0.085
 264       0.010    -0.001    -0.010       1.057
 265      -0.021    -0.015     0.027       0.218
 266       0.066     0.061     0.157      -0.027
 267       0.006    -0.002     0.012      -0.623
 268       0.003     0.002     0.034      -0.041
 269      -0.002    -0.001     0.003       0.130
 270      -0.003    -0.001     0.005       0.417
 271       0.006     0.003     0.015      -0.253
 272      -0.009    -0.008     0.011       0.073
 273       0.010    -0.001    -0.013       0.827
 274      -0.039     0.010    -0.049      -1.001
 275      -0.003    -0.001     0.004       0.717
 276      -0.005    -0.004     0.009       0.136
 277      -0.002    -0.000     0.002       0.791
 278      -0.003     0.000     0.003       1.153
 279      -0.001     0.001     0.005       0.364
 280      -0.004    -0.002     0.006       0.323
 281      -0.007     0.000     0.007       1.032
 282      -0.008    -0.004     0.026       0.159
 283       0.002     0.001     0.005      -0.121
 284       0.002    -0.002     0.007      -0.563
 285      -0.002    -0.000     0.002       0.697
 286      -0.003     0.001     0.003       1.103
 287      -0.001    -0.001     0.002       0.335
 288      -0.002     0.002     0.006       0.720
 289      -0.006     0.003     0.008       1.049
 290       0.013     0.010     0.056      -0.069
 291       0.002    -0.001    -0.004       0.844
 292      -0.004    -0.003     0.007       0.227
 293      -0.002    -0.001     0.003       0.155
 294       0.004     0.003     0.013      -0.104
 295       0.002    -0.000    -0.004       0.679
 296       0.002     0.001     0.018      -0.051
 297       0.006     0.002    -0.011       0.318
 298       0.174     0.167     0.311      -0.024
 299      -0.002    -0.001    -0.008      -0.106
 300      -0.022     0.002    -0.023      -1.029
 301      -0.004    -0.001     0.005       0.639
 302      -0.005    -0.005     0.008       0.071
 303       0.005     0.001    -0.007       0.568
 304      -0.014    -0.011     0.017       0.184
 305      -0.024     0.011    -0.026      -1.335
 306      -1.164    -0.938    -1.227      -0.184
 307       0.006     0.001    -0.009       0.563
 308       0.223     0.217     0.356      -0.016
 309      -0.005    -0.001     0.005       0.757
 310      -0.005    -0.004     0.009       0.134
 311       0.012     0.003     0.018      -0.502
 312       0.019    -0.017    -0.021       1.743
 313       0.030    -0.029    -0.033       1.797
 314       0.063     0.050     0.078      -0.172
 315      -0.026    -0.019     0.035       0.211
 316      -0.003    -0.001     0.004       0.421
 317      -0.002    -0.002     0.008       0.094
 318       0.005    -0.001    -0.006       0.975
 319       0.009     0.007     0.035      -0.052
 320       0.013    -0.012    -0.017       1.409
 321       0.270     0.207     0.445      -0.143
 322       0.004     0.001    -0.006       0.619
 323      -0.013    -0.010     0.017       0.157
 324      -0.002    -0.001     0.002       0.391
 325      -0.003     0.000     0.004       0.831
 326       0.003    -0.001    -0.003       1.309
 327      -0.002    -0.001     0.010       0.161
 328       0.007     0.000    -0.009       0.761
 329       0.005     0.000     0.051      -0.085
 330       0.003    -0.001    -0.004       0.880
 331      -0.006    -0.004     0.008       0.207
 332      -0.001    -0.001     0.002       0.421
 333      -0.004    -0.000     0.005       0.669
 334       0.004    -0.003     0.007      -1.042
 335      -0.010    -0.008     0.010       0.139
 336      -0.002     0.001    -0.011      -0.263
 337      -0.023     0.005    -0.025      -1.121
 338       0.002    -0.001    -0.002       1.818
 339       0.003    -0.003    -0.006       1.030
 340      -0.003    -0.001     0.004       0.614
 341      -0.004    -0.004     0.008       0.089
 342       0.060     0.047     0.073      -0.181
 343      -0.024    -0.017     0.036       0.203
 344       0.150     0.141     0.190      -0.046
 345      -0.152    -0.062    -0.162      -0.556
 346      -0.003     0.002     0.005       0.809
 347       0.039     0.038     0.069      -0.023
 348       0.005    -0.000    -0.005       1.026
 349      -0.007    -0.005     0.011       0.155
 350      -0.031    -0.006    -0.034      -0.734
 351      -0.100     0.022    -0.121      -1.015
 352      -0.018     0.018    -0.020      -1.793
 353      -1.074    -0.848    -1.138      -0.198
 354      -0.004     0.003     0.007       0.989
 355       0.011    -0.010    -0.011       1.805
 356       0.005    -0.001    -0.005       1.140
 357      -0.006    -0.005     0.009       0.080
 358       0.014    -0.011    -0.015       1.713
 359       0.069     0.014     0.162      -0.338
 360      -0.030    -0.005    -0.034      -0.739
 361      -0.086     0.032    -0.108      -1.099
 362       0.004    -0.001    -0.006       0.708
 363      -0.002    -0.001     0.018       0.045
 364      -0.002    -0.001     0.003       0.302
 365       0.001    -0.001     0.009      -0.228
 366       0.094     0.085     0.133      -0.064
 367      -0.005     0.001     0.039       0.152
 368       0.018     0.008     0.023      -0.432
 369       0.019    -0.018    -0.021       1.788
 370      -0.002    -0.001     0.003       0.472
 371      -0.004    -0.002     0.007       0.279
 372       0.001    -0.000    -0.002       0.948
 373      -0.003     0.001     0.003       1.159
 374      -0.005     0.000     0.006       0.984
 375      -0.005    -0.004     0.012       0.025
 376       0.005    -0.001    -0.007       0.766
 377      -0.009    -0.008     0.011       0.150
 378       0.001     0.000    -0.002       0.361
 379       0.002     0.001    -0.004       0.273
 380       0.002     0.000    -0.003       0.689
 381       0.002    -0.000    -0.002       1.013
 382      -0.004    -0.002     0.008       0.290
 383      -0.003     0.000     0.005       0.613
 384      -0.008    -0.004     0.013       0.335
 385       0.006    -0.002    -0.009       0.928
 386       0.003    -0.001    -0.004       0.882
 387       0.002    -0.001    -0.002       1.208
 388      -0.002     0.000     0.006       0.314
 389      -0.002    -0.001     0.004       0.149
 390      -0.009     0.009    -0.012      -1.459
 391      -0.004     0.002     0.010       0.674
 392      -0.019     0.013    -0.028      -1.155
 393      -0.018     0.000    -0.028      -0.648
 394      -0.004    -0.003     0.008       0.095
 395      -0.004     0.003    -0.005      -1.379
 396      -0.005    -0.004     0.008       0.113
 397      -0.004    -0.001     0.005       0.578
 398       0.028    -0.022    -0.030       1.670
 399      -0.009     0.009    -0.015      -1.203
 400      -0.136    -0.052    -0.173      -0.487
 401       0.550     0.547     0.800      -0.004
 402      -0.005    -0.002     0.017       0.207
 403       0.005     0.000     0.016      -0.304
 404      -0.007    -0.005     0.009       0.203
 405      -0.005    -0.001     0.006       0.695
 406      -0.089    -0.002    -0.101      -0.862
 407       0.006    -0.002     0.031      -0.259
 408      -1.072    -0.842    -1.135      -0.202
 409      -0.063    -0.015    -0.070      -0.676
 410       0.010    -0.010    -0.014       1.461
 411      -0.004     0.004     0.013       0.610
 412      -0.004    -0.003     0.007       0.086
 413      -0.003    -0.001     0.004       0.447
 414      -0.056    -0.018    -0.064      -0.590
 415       0.008    -0.001    -0.009       1.043
 416      -0.089    -0.001    -0.101      -0.871
 417       0.025     0.014     0.054      -0.205
 418      -0.002    -0.001     0.016       0.037
 419       0.004    -0.002    -0.005       1.069
 420      -0.003    -0.000     0.004       0.717
 421      -0.002    -0.001     0.002       0.413
 422       0.003     0.001     0.025      -0.082
 423       0.015     0.009     0.022      -0.256
 424       0.014    -0.011    -0.016       1.595
 425       0.006     0.001    -0.008       0.707
 426      -0.004    -0.001     0.005       0.534
 427      -0.002    -0.001     0.002       0.305
 428      -0.004    -0.001     0.004       0.628
 429      -0.002    -0.001     0.002       0.078
 430      -0.004     0.001     0.023       0.253
 431       0.007    -0.001     0.018      -0.421
 432       0.008    -0.006    -0.009       1.598
 433      -0.006    -0.002     0.007       0.637
 434      -0.003    -0.000     0.004       0.615
 435      -0.002    -0.001     0.002       0.443
 436      -0.002    -0.001     0.015       0.019
 437       0.004    -0.002    -0.006       1.058
 438      -0.087    -0.057    -0.112      -0.264
 439      -0.016     0.013    -0.023      -1.250
 440      -0.020     0.011    -0.026      -1.186
 441      -0.019    -0.001    -0.025      -0.710
 442      -0.002    -0.002     0.008       0.059
 443      -0.002    -0.000     0.006       0.298
 444      -0.013    -0.011     0.013       0.147
 445       0.007    -0.000    -0.007       1.010
 446      -1.153    -0.928    -1.216      -0.185
 447      -0.057    -0.010    -0.062      -0.764
 448      -0.085    -0.057    -0.109      -0.258
 449      -0.016     0.013    -0.023      -1.313
 450      -0.006    -0.004     0.009       0.228
 451      -0.005    -0.001     0.007       0.574
 452       0.012    -0.011    -0.013       1.748
 453       0.006     0.000    -0.006       0.960
 454      -0.412     0.130    -0.445      -1.217
 455      -0.018    -0.008     0.035       0.286
 456      -0.028    -0.019     0.031       0.271
 457      -0.009     0.009    -0.015      -1.251
 458      -0.005    -0.004     0.008       0.155
 459      -0.004    -0.001     0.005       0.598
 460      -0.007     0.005    -0.007      -1.607
 461      -0.003    -0.001     0.003       0.737
 462      -0.058    -0.017    -0.070      -0.587
 463       0.009     0.001    -0.010       0.792
 464      -0.012    -0.011     0.012       0.055
 465       0.006    -0.001    -0.006       1.029
 466      -0.002    -0.000     0.006       0.278
 467      -0.002    -0.001     0.003       0.139
 468      -0.003     0.001     0.005       0.767
 469      -0.001    -0.000     0.001       0.786
 470      -0.009    -0.004     0.014       0.310
 471      -0.005     0.002     0.009       0.817
 472      -0.006    -0.004     0.007       0.229
 473      -0.004    -0.001     0.004       0.802
 474       0.002     0.000    -0.003       0.639
 475       0.002    -0.000    -0.002       0.847
 476       0.001     0.001    -0.002       0.205
 477      -0.002     0.001     0.003       1.176
 478       0.007    -0.002    -0.008       1.157
 479      -0.009    -0.004     0.009       0.476
 480       0.006    -0.002    -0.006       1.165
 481      -0.008    -0.005     0.008       0.371
 482       0.002     0.000    -0.002       0.740
 483       0.002     0.000    -0.003       0.741
 484      -0.003    -0.002     0.004       0.099
 485      -0.003    -0.002     0.006       0.159
 486      -0.004     0.004     0.019       0.402
 487      -0.016    -0.012     0.020       0.186
 488       0.005    -0.003     0.018      -0.486
 489      -0.014    -0.010     0.022       0.194
 490      -0.002    -0.002     0.003       0.187
 491      -0.004    -0.004     0.005       0.158
 492      -0.004    -0.002     0.009       0.292
 493      -0.006    -0.004     0.009       0.269
 494       0.188     0.180     0.318      -0.027
 495      -0.090    -0.001    -0.097      -0.923
 496      -0.016     0.014    -0.024      -1.208
 497      -0.127    -0.035    -0.134      -0.686
 498      -0.005    -0.002     0.006       0.587
 499      -0.007    -0.005     0.008       0.227
 500      -0.008    -0.004     0.008       0.480
 501      -0.008    -0.005     0.009       0.388
 502      -0.122    -0.026    -0.126      -0.759
 503       0.054    -0.000     0.150      -0.361
 504       0.203     0.195     0.340      -0.023
 505      -0.089     0.002    -0.095      -0.956
 506      -0.006    -0.002     0.007       0.569
 507       0.003     0.000     0.018      -0.181
 508      -0.004    -0.002     0.008       0.217
 509      -0.005    -0.003     0.007       0.197
 510       0.544     0.538     0.780      -0.007
 511      -0.021    -0.013     0.027       0.303
 512       0.017    -0.013    -0.018       1.590
 513      -0.017     0.016    -0.021      -1.549
 514      -0.004    -0.002     0.005       0.283
 515      -0.003    -0.002     0.007       0.101
 516      -0.003    -0.001     0.003       0.417
 517      -0.002    -0.001     0.004       0.503
 518      -0.011    -0.004     0.011       0.601
 519      -0.009    -0.004     0.011       0.503
 520       0.008    -0.004    -0.008       1.433
 521      -0.008    -0.004     0.009       0.402
 522      -0.002     0.000     0.003       0.504
 523       0.003    -0.000    -0.003       1.020
 524      -0.002    -0.001     0.003       0.591
 525      -0.003    -0.000     0.003       0.658
 526      -0.004    -0.002     0.005       0.421
 527       0.003     0.002     0.014      -0.073
 528       0.008    -0.002    -0.011       0.951
 529      -0.018     0.006    -0.026      -0.927
 530      -0.003    -0.002     0.003       0.369
 531      -0.005    -0.004     0.006       0.181
 532      -0.003    -0.002     0.005       0.223
 533      -0.004    -0.003     0.006       0.149
 534       0.007    -0.007    -0.011       1.296
 535       0.012    -0.010    -0.012       1.762
 536       0.015    -0.014    -0.025       1.184
 537      -0.133    -0.041    -0.143      -0.643
 538       0.005    -0.003    -0.008       1.104
 539      -0.019     0.003    -0.023      -0.953
 540      -0.005    -0.002     0.007       0.438
 541      -0.005    -0.003     0.008       0.294
 542       0.017    -0.013    -0.018       1.606
 543       0.018    -0.015    -0.020       1.609
 544      -0.133    -0.038    -0.144      -0.663
 545      -0.407     0.149    -0.438      -1.270
 546      -0.005     0.002     0.018       0.372
 547      -0.017    -0.014     0.019       0.155
 548      -0.005    -0.003     0.006       0.373
 549      -0.004    -0.002     0.007       0.229
 550      -0.016    -0.011     0.018       0.248
 551       0.013    -0.011    -0.019       1.240
 552      -0.111    -0.013    -0.113      -0.868
 553       0.282     0.213     0.443      -0.157
 554       0.008    -0.007    -0.012       1.214
 555      -0.012    -0.009     0.013       0.239
 556      -0.002    -0.001     0.004       0.198
 557      -0.003    -0.001     0.004       0.313
 558      -0.007     0.007    -0.010      -1.392
 559      -0.006    -0.004     0.009       0.262
 560      -0.017    -0.010     0.020       0.336
 561       0.014    -0.009    -0.023       0.979
 562      -0.003    -0.002     0.007       0.109
 563      -0.005    -0.004     0.007       0.101
 564      -0.002    -0.000     0.002       0.919
 565       0.002     0.000    -0.003       0.891
 566      -0.003    -0.001     0.006       0.311
 567       0.003     0.002     0.010      -0.116
 568      -0.008    -0.001     0.011       0.637
 569       0.010    -0.005    -0.011       1.389
 570       0.003    -0.001    -0.003       1.410
 571      -0.003    -0.001     0.004       0.695
 572      -0.624    -0.555    -0.752      -0.092
 573       0.242     0.037    -0.399       0.512
 574      14.747    14.703    25.652      -0.002
 575      14.771    14.732    25.890      -0.002
 576      -0.604    -0.524    -0.726      -0.110
 ---------------------------------------------------------------------



--------------------------------------------------------------------------------------------------------


     LOOP+:  cpu time 1147.4557: real time 1150.8354
    4ORBIT:  cpu time    0.0000: real time    0.0000

 total amount of memory used by VASP MPI-rank0   238699. kBytes
=======================================================================

   base      :      30000. kBytes
   nonlr-proj:       9222. kBytes
   fftplans  :      15014. kBytes
   grid      :      46644. kBytes
   one-center:        294. kBytes
   wavefun   :     137525. kBytes
 
  
  
 General timing and accounting informations for this job:
 ========================================================
  
                  Total CPU time used (sec):     1176.605
                            User time (sec):     1175.620
                          System time (sec):        0.984
                         Elapsed time (sec):     1180.624
  
                   Maximum memory used (kb):      435380.
                   Average memory used (kb):          N/A
  
                          Minor page faults:       188586
                          Major page faults:            0
                 Voluntary context switches:        12280
