 vasp.6.2.0 18Jan21 (build Apr 30 2021 19:00:08) gamma-only                     
  
 executed on             LinuxIFC date 2022.12.30  13:25:42
 running on   24 total cores
 distrk:  each k-point on   24 cores,    1 groups
 distr:  one band on NCORE=   6 cores,    4 groups


--------------------------------------------------------------------------------------------------------


 INCAR:
   SYSTEM = Diamond
   PREC = Normal
   ISTART = 0
   ICHARG = 11
   ISPIN = 2
   MAGMOM = 572*0.0 1*2.0 2*2.0 1*3
   NPAR = 4
   NELECT = 2303
   LHYPERFINE = T
   LEFG = T
   ENCUT = 700
   NELM = 1000
   NELMIN = 4
   EDIFF = 1E-06
   LREAL = Auto
   ALGO = Normal
   EDIFFG = -1E-02
   NSW = 0
   IBRION = 2
   ISIF = 2
   ISYM = 2
   POTIM = 0.5
   ISMEAR = 0
   SIGMA = 0.05
   NEDOS = 1000
   LWAVE = F
   LCHARG = F
   LVHAR = F
   LELF = F

 POTCAR:    PAW_PBE C 08Apr2002                   
 POTCAR:    PAW_PBE H 15Jun2001                   
 POTCAR:    PAW_PBE C 08Apr2002                   
 POTCAR:    PAW_PBE N 08Apr2002                   
 POTCAR:    PAW_PBE C 08Apr2002                   
   VRHFIN =C: s2p2                                                                                  
   LEXCH  = PE                                                                                      
   EATOM  =   147.1560 eV,   10.8157 Ry                                                             
                                                                                                    
   TITEL  = PAW_PBE C 08Apr2002                                                                     
   LULTRA =        F    use ultrasoft PP ?                                                          
   IUNSCR =        1    unscreen: 0-lin 1-nonlin 2-no                                               
   RPACOR =    1.200    partial core radius                                                         
   POMASS =   12.011; ZVAL   =    4.000    mass and valenz                                          
   RCORE  =    1.500    outmost cutoff radius                                                       
   RWIGS  =    1.630; RWIGS  =    0.863    wigner-seitz radius (au A)                               
   ENMAX  =  400.000; ENMIN  =  300.000 eV                                                          
   ICORE  =        2    local potential                                                             
   LCOR   =        T    correct aug charges                                                         
   LPAW   =        T    paw PP                                                                      
   EAUG   =  644.873                                                                                
   DEXC   =    0.000                                                                                
   RMAX   =    1.529    core radius for proj-oper                                                   
   RAUG   =    1.300    factor for augmentation sphere                                              
   RDEP   =    1.501    radius for radial grids                                                     
   RDEPT  =    1.300    core radius for aug-charge                                                  
                                                                                                    
   Atomic configuration                                                                             
    4 entries                                                                                       
     n  l   j            E        occ.                                                              
     1  0  0.50      -273.3789   2.0000                                                             
     2  0  0.50       -13.7508   2.0000                                                             
     2  1  0.50        -5.2854   2.0000                                                             
     3  2  1.50        -5.4423   0.0000                                                             
   Description                                                                                      
     l       E           TYP  RCUT    TYP  RCUT                                                     
     0    -13.7508458     23  1.200                                                                 
     0     -8.2022199     23  1.200                                                                 
     1     -5.2854383     23  1.500                                                                 
     1     34.0145650     23  1.500                                                                 
     2     -5.4423304      7  1.500                                                                 
  local pseudopotential read in
  partial core-charges read in
  partial kinetic energy density read in
  atomic valenz-charges read in
  non local Contribution for L=           0  read in
    real space projection operators read in
  non local Contribution for L=           0  read in
    real space projection operators read in
  non local Contribution for L=           1  read in
    real space projection operators read in
  non local Contribution for L=           1  read in
    real space projection operators read in
    PAW grid and wavefunctions read in
 
   number of l-projection  operators is LMAX  =           4
   number of lm-projection operators is LMMAX =           8
 
 POTCAR:    PAW_PBE H 15Jun2001                   
   VRHFIN =H: ultrasoft test                                                                        
   LEXCH  = PE                                                                                      
   EATOM  =    12.4884 eV,    0.9179 Ry                                                             
                                                                                                    
   TITEL  = PAW_PBE H 15Jun2001                                                                     
   LULTRA =        F    use ultrasoft PP ?                                                          
   IUNSCR =        0    unscreen: 0-lin 1-nonlin 2-no                                               
   RPACOR =    0.000    partial core radius                                                         
   POMASS =    1.000; ZVAL   =    1.000    mass and valenz                                          
   RCORE  =    1.100    outmost cutoff radius                                                       
   RWIGS  =    0.700; RWIGS  =    0.370    wigner-seitz radius (au A)                               
   ENMAX  =  250.000; ENMIN  =  200.000 eV                                                          
   RCLOC  =    0.701    cutoff for local pot                                                        
   LCOR   =        T    correct aug charges                                                         
   LPAW   =        T    paw PP                                                                      
   EAUG   =  400.000                                                                                
   RMAX   =    1.123    core radius for proj-oper                                                   
   RAUG   =    1.200    factor for augmentation sphere                                              
   RDEP   =    1.112    radius for radial grids                                                     
   RDEPT  =    0.926    core radius for aug-charge                                                  
                                                                                                    
   Atomic configuration                                                                             
    2 entries                                                                                       
     n  l   j            E        occ.                                                              
     1  0  0.50        -6.4927   1.0000                                                             
     2  1  0.50        -3.4015   0.0000                                                             
   Description                                                                                      
     l       E           TYP  RCUT    TYP  RCUT                                                     
     0     -6.4927494     23  1.100                                                                 
     0      6.8029130     23  1.100                                                                 
     1     -4.0817478     23  1.100                                                                 
  local pseudopotential read in
  atomic valenz-charges read in
  non local Contribution for L=           0  read in
    real space projection operators read in
  non local Contribution for L=           0  read in
    real space projection operators read in
  non local Contribution for L=           1  read in
    real space projection operators read in
    PAW grid and wavefunctions read in
 
   number of l-projection  operators is LMAX  =           3
   number of lm-projection operators is LMMAX =           5
 
 POTCAR:    PAW_PBE C 08Apr2002                   
   VRHFIN =C: s2p2                                                                                  
   LEXCH  = PE                                                                                      
   EATOM  =   147.1560 eV,   10.8157 Ry                                                             
                                                                                                    
   TITEL  = PAW_PBE C 08Apr2002                                                                     
   LULTRA =        F    use ultrasoft PP ?                                                          
   IUNSCR =        1    unscreen: 0-lin 1-nonlin 2-no                                               
   RPACOR =    1.200    partial core radius                                                         
   POMASS =   12.011; ZVAL   =    4.000    mass and valenz                                          
   RCORE  =    1.500    outmost cutoff radius                                                       
   RWIGS  =    1.630; RWIGS  =    0.863    wigner-seitz radius (au A)                               
   ENMAX  =  400.000; ENMIN  =  300.000 eV                                                          
   ICORE  =        2    local potential                                                             
   LCOR   =        T    correct aug charges                                                         
   LPAW   =        T    paw PP                                                                      
   EAUG   =  644.873                                                                                
   DEXC   =    0.000                                                                                
   RMAX   =    1.529    core radius for proj-oper                                                   
   RAUG   =    1.300    factor for augmentation sphere                                              
   RDEP   =    1.501    radius for radial grids                                                     
   RDEPT  =    1.300    core radius for aug-charge                                                  
                                                                                                    
   Atomic configuration                                                                             
    4 entries                                                                                       
     n  l   j            E        occ.                                                              
     1  0  0.50      -273.3789   2.0000                                                             
     2  0  0.50       -13.7508   2.0000                                                             
     2  1  0.50        -5.2854   2.0000                                                             
     3  2  1.50        -5.4423   0.0000                                                             
   Description                                                                                      
     l       E           TYP  RCUT    TYP  RCUT                                                     
     0    -13.7508458     23  1.200                                                                 
     0     -8.2022199     23  1.200                                                                 
     1     -5.2854383     23  1.500                                                                 
     1     34.0145650     23  1.500                                                                 
     2     -5.4423304      7  1.500                                                                 
  local pseudopotential read in
  partial core-charges read in
  partial kinetic energy density read in
  atomic valenz-charges read in
  non local Contribution for L=           0  read in
    real space projection operators read in
  non local Contribution for L=           0  read in
    real space projection operators read in
  non local Contribution for L=           1  read in
    real space projection operators read in
  non local Contribution for L=           1  read in
    real space projection operators read in
    PAW grid and wavefunctions read in
 
   number of l-projection  operators is LMAX  =           4
   number of lm-projection operators is LMMAX =           8
 
 POTCAR:    PAW_PBE N 08Apr2002                   
   VRHFIN =N: s2p3                                                                                  
   LEXCH  = PE                                                                                      
   EATOM  =   264.5486 eV,   19.4438 Ry                                                             
                                                                                                    
   TITEL  = PAW_PBE N 08Apr2002                                                                     
   LULTRA =        F    use ultrasoft PP ?                                                          
   IUNSCR =        1    unscreen: 0-lin 1-nonlin 2-no                                               
   RPACOR =    1.200    partial core radius                                                         
   POMASS =   14.001; ZVAL   =    5.000    mass and valenz                                          
   RCORE  =    1.500    outmost cutoff radius                                                       
   RWIGS  =    1.400; RWIGS  =    0.741    wigner-seitz radius (au A)                               
   ENMAX  =  400.000; ENMIN  =  300.000 eV                                                          
   ICORE  =        2    local potential                                                             
   LCOR   =        T    correct aug charges                                                         
   LPAW   =        T    paw PP                                                                      
   EAUG   =  627.112                                                                                
   DEXC   =    0.000                                                                                
   RMAX   =    1.529    core radius for proj-oper                                                   
   RAUG   =    1.300    factor for augmentation sphere                                              
   RDEP   =    1.514    radius for radial grids                                                     
   RDEPT  =    1.338    core radius for aug-charge                                                  
                                                                                                    
   Atomic configuration                                                                             
    4 entries                                                                                       
     n  l   j            E        occ.                                                              
     1  0  0.50      -384.7179   2.0000                                                             
     2  0  0.50       -18.5828   2.0000                                                             
     2  1  0.50        -7.0898   3.0000                                                             
     3  2  1.50        -6.8029   0.0000                                                             
   Description                                                                                      
     l       E           TYP  RCUT    TYP  RCUT                                                     
     0    -18.5828119     23  1.200                                                                 
     0    -13.5018863     23  1.200                                                                 
     1     -7.0897853     23  1.500                                                                 
     1      9.5240782     23  1.500                                                                 
     2     -6.8029130      7  1.500                                                                 
  local pseudopotential read in
  partial core-charges read in
  partial kinetic energy density read in
  atomic valenz-charges read in
  non local Contribution for L=           0  read in
    real space projection operators read in
  non local Contribution for L=           0  read in
    real space projection operators read in
  non local Contribution for L=           1  read in
    real space projection operators read in
  non local Contribution for L=           1  read in
    real space projection operators read in
    PAW grid and wavefunctions read in
 
   number of l-projection  operators is LMAX  =           4
   number of lm-projection operators is LMMAX =           8
 
 Optimization of the real space projectors (new method)

 maximal supplied QI-value         = 25.13
 optimisation between [QCUT,QGAM] = [ 13.32, 26.89] = [ 49.69,202.52] Ry 
 Optimized for a Real-space Cutoff    1.01 Angstroem

   l    n(q)    QCUT    max X(q) W(low)/X(q) W(high)/X(q)  e(spline) 
   0      8    13.321   115.676    0.29E-03    0.42E-03    0.11E-06
   0      8    13.321    87.132    0.29E-03    0.42E-03    0.11E-06
   1      8    13.321     4.429    0.39E-03    0.33E-03    0.98E-07
   1      8    13.321     2.733    0.30E-03    0.26E-03    0.97E-07
 Optimization of the real space projectors (new method)

 maximal supplied QI-value         = 34.20
 optimisation between [QCUT,QGAM] = [ 13.34, 27.02] = [ 49.83,204.46] Ry 
 Optimized for a Real-space Cutoff    0.93 Angstroem

   l    n(q)    QCUT    max X(q) W(low)/X(q) W(high)/X(q)  e(spline) 
   0      7    13.340    19.460    0.47E-03    0.72E-04    0.17E-06
   0      7    13.340    12.209    0.45E-03    0.63E-04    0.16E-06
   1      7    13.340     4.655    0.21E-03    0.61E-03    0.12E-06
 Optimization of the real space projectors (new method)

 maximal supplied QI-value         = 25.13
 optimisation between [QCUT,QGAM] = [ 13.32, 26.89] = [ 49.69,202.52] Ry 
 Optimized for a Real-space Cutoff    1.01 Angstroem

   l    n(q)    QCUT    max X(q) W(low)/X(q) W(high)/X(q)  e(spline) 
   0      8    13.321   115.676    0.29E-03    0.42E-03    0.11E-06
   0      8    13.321    87.132    0.29E-03    0.42E-03    0.11E-06
   1      8    13.321     4.429    0.39E-03    0.33E-03    0.98E-07
   1      8    13.321     2.733    0.30E-03    0.26E-03    0.97E-07
 Optimization of the real space projectors (new method)

 maximal supplied QI-value         = 25.13
 optimisation between [QCUT,QGAM] = [ 13.32, 26.89] = [ 49.69,202.52] Ry 
 Optimized for a Real-space Cutoff    1.01 Angstroem

   l    n(q)    QCUT    max X(q) W(low)/X(q) W(high)/X(q)  e(spline) 
   0      8    13.321    79.467    0.28E-03    0.38E-03    0.11E-06
   0      8    13.321    66.151    0.27E-03    0.38E-03    0.11E-06
   1      8    13.321    23.070    0.40E-03    0.78E-03    0.29E-06
   1      8    13.321    16.668    0.40E-03    0.79E-03    0.30E-06
  PAW_PBE C 08Apr2002                   :
 energy of atom  1       EATOM= -147.1560
 kinetic energy error for atom=    0.0032 (will be added to EATOM!!)
  PAW_PBE H 15Jun2001                   :
 energy of atom  2       EATOM=  -12.4884
 kinetic energy error for atom=    0.0002 (will be added to EATOM!!)
  PAW_PBE C 08Apr2002                   :
 energy of atom  3       EATOM= -147.1560
 kinetic energy error for atom=    0.0032 (will be added to EATOM!!)
  PAW_PBE N 08Apr2002                   :
 energy of atom  4       EATOM= -264.5486
 kinetic energy error for atom=    0.0061 (will be added to EATOM!!)
 
 
 POSCAR: Autosave
  positions in direct lattice
  velocities in cartesian coordinates
 exchange correlation table for  LEXCH =        8
   RHO(1)=    0.500       N(1)  =     2000
   RHO(2)=  100.500       N(2)  =     4000
 


--------------------------------------------------------------------------------------------------------


 ion  position               nearest neighbor table
   1  0.000  0.000  0.000- 285 1.55 381 1.55 475 1.55 435 1.55
   2  0.000  0.000  0.500- 286 1.55 474 1.55 380 1.55 434 1.55
   3  1.000  0.250  0.000- 287 1.55 469 1.55 383 1.55 429 1.55
   4  1.000  0.250  0.500- 288 1.55 382 1.55 468 1.55 428 1.55
   5  0.000  0.500  0.000- 289 1.55 431 1.55 471 1.55 385 1.55
   6  0.000  0.500  0.500- 384 1.55 290 1.55 470 1.55 430 1.55
   7  0.000  0.750  0.000- 473 1.55 291 1.55 433 1.55 387 1.55
   8  0.000  0.750  0.500- 292 1.55 472 1.55 386 1.55 432 1.55
   9  0.167  1.000  0.000- 435 1.55 293 1.55 389 1.55 443 1.55
  10  0.167  1.000  0.500- 294 1.55 434 1.55 442 1.55 388 1.55
  11  0.167  0.250  0.000- 295 1.55 429 1.55 391 1.55 437 1.55
  12  0.167  0.250  0.500- 296 1.55 436 1.55 390 1.55 428 1.55
  13  0.167  0.500  0.000- 297 1.55 431 1.55 439 1.55 393 1.55
  14  0.167  0.500  0.500- 392 1.55 298 1.55 430 1.55 438 1.55
  15  0.167  0.750  0.000- 441 1.55 433 1.55 299 1.55 395 1.55
  16  0.167  0.750  0.500- 300 1.55 432 1.55 394 1.55 440 1.55
  17  0.333  1.000  0.000- 397 1.55 301 1.55 443 1.55 451 1.55
  18  0.333  1.000  0.500- 302 1.55 442 1.55 450 1.55 396 1.55
  19  0.333  0.250  0.000- 303 1.55 399 1.55 437 1.55 445 1.55
  20  0.334  0.250  0.500- 444 1.55 304 1.55 436 1.55 398 1.55
  21  0.333  0.500  0.000- 305 1.54 439 1.55 401 1.55 447 1.55
  22  0.335  0.500  0.501- 400 1.54 306 1.55 438 1.56 446 1.56
  23  0.333  0.750  0.000- 307 1.55 403 1.55 441 1.55 449 1.55
  24  0.334  0.750  0.500- 440 1.55 308 1.55 402 1.55 448 1.55
  25  0.500  1.000  0.000- 405 1.55 309 1.55 459 1.55 451 1.55
  26  0.500  1.000  0.500- 310 1.55 458 1.55 450 1.55 404 1.55
  27  0.500  0.250  0.000- 407 1.54 311 1.54 453 1.55 445 1.55
  28  0.500  0.250  0.500- 312 1.55 452 1.55 444 1.55 406 1.55
  29  0.500  0.500  1.000- 313 1.54 409 1.55 455 1.55 447 1.55
  30  0.500  0.750  1.000- 314 1.54 411 1.55 457 1.55 449 1.55
  31  0.500  0.750  0.500- 448 1.54 456 1.55 315 1.55 410 1.55
  32  0.667  0.000  0.000- 316 1.55 413 1.55 459 1.55 467 1.55
  33  0.667  0.000  0.500- 317 1.55 466 1.55 458 1.55 412 1.55
  34  0.667  0.250  1.000- 318 1.55 461 1.55 453 1.55 415 1.55
  35  0.666  0.250  0.500- 319 1.55 452 1.55 460 1.55 414 1.55
  36  0.667  0.500  1.000- 320 1.54 463 1.55 417 1.55 455 1.55
  37  0.666  0.501  0.500- 416 1.54 321 1.55 462 1.55 454 1.56
  38  0.667  0.750  1.000- 322 1.55 419 1.55 465 1.55 457 1.55
  39  0.667  0.750  0.500- 464 1.55 323 1.55 418 1.55 456 1.55
  40  0.833  0.000  0.000- 324 1.55 421 1.55 475 1.55 467 1.55
  41  0.833  0.000  0.500- 325 1.55 474 1.55 466 1.55 420 1.55
  42  0.833  0.250  1.000- 469 1.55 326 1.55 461 1.55 423 1.55
  43  0.833  0.250  0.500- 327 1.55 460 1.55 422 1.55 468 1.55
  44  0.833  0.500  0.000- 328 1.55 471 1.55 425 1.55 463 1.55
  45  0.833  0.500  0.500- 424 1.55 329 1.55 470 1.55 462 1.55
  46  0.833  0.750  0.000- 465 1.55 330 1.55 473 1.55 427 1.55
  47  0.833  0.750  0.500- 426 1.55 331 1.55 472 1.55 464 1.55
  48  0.083  0.125  0.000- 429 1.55 381 1.55 332 1.55 389 1.55
  49  0.083  0.125  0.500- 333 1.55 380 1.55 428 1.55 388 1.55
  50  0.083  0.375  0.000- 383 1.55 334 1.55 391 1.55 431 1.55
  51  0.083  0.375  0.500- 430 1.55 335 1.55 390 1.55 382 1.55
  52  0.083  0.625  0.000- 393 1.55 385 1.55 336 1.55 433 1.55
  53  0.083  0.625  0.500- 337 1.55 384 1.55 432 1.55 392 1.55
  54  0.083  0.875  0.000- 387 1.55 338 1.55 435 1.55 395 1.55
  55  0.083  0.875  0.500- 339 1.55 386 1.55 434 1.55 394 1.55
  56  0.250  0.125  0.000- 437 1.55 340 1.55 389 1.55 397 1.55
  57  0.250  0.125  0.500- 341 1.55 396 1.55 388 1.55 436 1.55
  58  0.250  0.375  1.000- 342 1.54 391 1.55 439 1.55 399 1.55
  59  0.250  0.375  0.500- 438 1.54 398 1.54 343 1.55 390 1.55
  60  0.250  0.625  0.000- 401 1.54 344 1.54 393 1.55 441 1.55
  61  0.250  0.625  0.500- 392 1.55 345 1.55 440 1.55 400 1.55
  62  0.250  0.875  0.000- 443 1.55 395 1.55 346 1.55 403 1.55
  63  0.250  0.875  0.500- 394 1.55 347 1.55 442 1.55 402 1.55
  64  0.417  0.125  0.000- 445 1.55 348 1.55 405 1.55 397 1.55
  65  0.417  0.125  0.500- 349 1.55 404 1.55 396 1.55 444 1.55
  66  0.417  0.375  0.000- 350 1.54 399 1.55 407 1.55 447 1.55
  67  0.418  0.376  0.501- 406 1.54 351 1.55 398 1.56 446 1.56
  68  0.417  0.625  1.000- 352 1.54 449 1.55 401 1.55 409 1.55
  69  0.417  0.623  0.500- 400 1.54 353 1.55 408 1.56 448 1.56
  70  0.417  0.875  1.000- 451 1.55 354 1.55 403 1.55 411 1.55
  71  0.417  0.875  0.500- 355 1.55 402 1.55 410 1.55 450 1.55
  72  0.583  0.125  0.000- 453 1.55 356 1.55 413 1.55 405 1.55
  73  0.583  0.125  0.500- 357 1.55 412 1.55 404 1.55 452 1.55
  74  0.583  0.375  1.000- 358 1.54 415 1.55 407 1.55 455 1.55
  75  0.582  0.376  0.500- 406 1.54 359 1.55 454 1.56 414 1.56
  76  0.583  0.625  1.000- 360 1.54 457 1.55 417 1.55 409 1.55
  77  0.583  0.624  0.500- 416 1.54 361 1.55 456 1.55 408 1.56
  78  0.583  0.875  1.000- 459 1.55 362 1.55 419 1.55 411 1.55
  79  0.583  0.875  0.500- 363 1.55 418 1.55 410 1.55 458 1.55
  80  0.750  0.125  0.000- 364 1.55 421 1.55 461 1.55 413 1.55
  81  0.750  0.125  0.500- 365 1.55 412 1.55 420 1.55 460 1.55
  82  0.750  0.375  1.000- 366 1.54 423 1.55 463 1.55 415 1.55
  83  0.750  0.375  0.500- 414 1.54 462 1.54 367 1.55 422 1.55
  84  0.750  0.625  0.000- 417 1.54 368 1.54 425 1.55 465 1.55
  85  0.750  0.625  0.500- 464 1.55 424 1.55 369 1.55 416 1.55
  86  0.750  0.875  0.000- 370 1.55 467 1.55 419 1.55 427 1.55
  87  0.750  0.875  0.500- 371 1.55 426 1.55 466 1.55 418 1.55
  88  0.917  0.125  0.000- 469 1.55 372 1.55 381 1.55 421 1.55
  89  0.917  0.125  0.500- 373 1.55 468 1.55 420 1.55 380 1.55
  90  0.917  0.375  1.000- 383 1.55 374 1.55 471 1.55 423 1.55
  91  0.917  0.375  0.500- 470 1.55 375 1.55 422 1.55 382 1.55
  92  0.917  0.625  0.000- 425 1.55 385 1.55 376 1.55 473 1.55
  93  0.917  0.625  0.500- 377 1.55 384 1.55 472 1.55 424 1.55
  94  0.917  0.875  0.000- 427 1.55 378 1.55 475 1.55 387 1.55
  95  0.917  0.875  0.500- 379 1.55 474 1.55 426 1.55 386 1.55
  96  1.000  0.083  0.333- 380 1.55 476 1.55 564 1.55 524 1.55
  97  1.000  0.083  0.833- 477 1.55 565 1.55 381 1.55 525 1.55
  98  1.000  0.333  0.333- 382 1.55 478 1.55 566 1.55 526 1.55
  99  1.000  0.333  0.833- 383 1.55 567 1.55 527 1.55 479 1.55
 100  0.000  0.583  0.333- 384 1.55 528 1.55 568 1.55 480 1.55
 101  0.000  0.583  0.833- 569 1.55 529 1.55 385 1.55 481 1.55
 102  0.000  0.833  0.333- 386 1.55 570 1.55 482 1.55 530 1.55
 103  0.000  0.833  0.833- 571 1.55 387 1.55 483 1.55 531 1.55
 104  0.167  0.083  0.333- 388 1.55 524 1.55 484 1.55 532 1.55
 105  0.167  0.083  0.833- 525 1.55 485 1.55 389 1.55 533 1.55
 106  0.167  0.333  0.333- 390 1.55 486 1.55 534 1.55 526 1.55
 107  0.167  0.333  0.833- 527 1.55 391 1.55 487 1.55 535 1.55
 108  0.167  0.583  0.333- 392 1.55 536 1.55 528 1.55 488 1.55
 109  0.167  0.583  0.833- 537 1.55 529 1.55 393 1.55 489 1.55
 110  0.167  0.833  0.333- 394 1.55 530 1.55 538 1.55 490 1.55
 111  0.167  0.833  0.833- 531 1.55 491 1.55 395 1.55 539 1.55
 112  0.333  0.083  0.333- 396 1.55 540 1.55 532 1.55 492 1.55
 113  0.333  0.083  0.833- 493 1.55 533 1.55 397 1.55 541 1.55
 114  0.333  0.333  0.333- 542 1.55 494 1.55 534 1.55 398 1.55
 115  0.333  0.333  0.833- 399 1.55 535 1.55 543 1.55 495 1.55
 116  0.333  0.583  0.333- 496 1.55 536 1.55 544 1.55 400 1.55
 117  0.333  0.583  0.835- 401 1.54 497 1.55 537 1.55 545 1.55
 118  0.333  0.833  0.333- 402 1.55 546 1.55 538 1.55 498 1.55
 119  0.333  0.833  0.833- 499 1.55 539 1.55 403 1.55 547 1.55
 120  0.500  0.083  0.333- 404 1.55 500 1.55 548 1.55 540 1.55
 121  0.500  0.083  0.833- 405 1.55 501 1.55 549 1.55 541 1.55
 122  0.500  0.333  0.333- 550 1.55 542 1.55 502 1.55 406 1.55
 123  0.500  0.333  0.835- 407 1.54 551 1.55 543 1.55 503 1.55
 124  0.500  0.584  0.332- 504 1.54 408 1.54 552 1.55 544 1.55
 125  0.500  0.583  0.833- 505 1.54 409 1.55 553 1.55 545 1.56
 126  0.500  0.833  0.333- 410 1.55 554 1.55 546 1.55 506 1.55
 127  0.500  0.833  0.833- 411 1.55 507 1.55 555 1.55 547 1.55
 128  0.667  0.083  0.333- 412 1.55 548 1.55 556 1.55 508 1.55
 129  0.667  0.083  0.833- 509 1.55 557 1.55 413 1.55 549 1.55
 130  0.667  0.334  0.333- 510 1.55 550 1.55 558 1.55 414 1.55
 131  0.667  0.333  0.833- 415 1.55 559 1.55 551 1.55 511 1.55
 132  0.667  0.583  0.333- 512 1.55 560 1.55 552 1.55 416 1.55
 133  0.667  0.584  0.834- 417 1.54 553 1.54 561 1.55 513 1.55
 134  0.667  0.833  0.333- 418 1.55 554 1.55 514 1.55 562 1.55
 135  0.667  0.833  0.833- 515 1.55 419 1.55 563 1.55 555 1.55
 136  0.833  0.083  0.333- 420 1.55 516 1.55 556 1.55 564 1.55
 137  0.833  0.083  0.833- 421 1.55 557 1.55 517 1.55 565 1.55
 138  0.833  0.333  0.333- 422 1.55 518 1.55 558 1.55 566 1.55
 139  0.833  0.333  0.833- 423 1.55 567 1.55 519 1.55 559 1.55
 140  0.833  0.583  0.333- 568 1.55 424 1.55 520 1.55 560 1.55
 141  0.834  0.583  0.833- 561 1.54 569 1.55 425 1.55 521 1.55
 142  0.833  0.833  0.333- 426 1.55 522 1.55 562 1.55 570 1.55
 143  0.833  0.833  0.833- 563 1.55 523 1.55 427 1.55 571 1.55
 144  0.083  0.208  0.333- 428 1.55 526 1.55 484 1.55 476 1.55
 145  0.083  0.208  0.833- 477 1.55 527 1.55 429 1.55 485 1.55
 146  0.083  0.458  0.333- 430 1.55 486 1.55 528 1.55 478 1.55
 147  0.083  0.458  0.833- 487 1.55 431 1.55 479 1.55 529 1.55
 148  0.083  0.708  0.333- 432 1.55 488 1.55 480 1.55 530 1.55
 149  0.083  0.708  0.833- 481 1.55 433 1.55 531 1.55 489 1.55
 150  0.083  0.958  0.333- 434 1.55 482 1.55 524 1.55 490 1.55
 151  0.083  0.958  0.833- 483 1.55 525 1.55 435 1.55 491 1.55
 152  0.250  0.208  0.333- 436 1.55 534 1.55 492 1.55 484 1.55
 153  0.250  0.208  0.833- 485 1.55 437 1.55 535 1.55 493 1.55
 154  0.250  0.458  0.333- 494 1.55 536 1.55 486 1.55 438 1.55
 155  0.250  0.458  0.833- 439 1.55 487 1.55 537 1.55 495 1.55
 156  0.250  0.708  0.333- 440 1.55 488 1.55 496 1.55 538 1.55
 157  0.250  0.708  0.833- 489 1.55 539 1.55 441 1.55 497 1.55
 158  0.250  0.958  0.333- 442 1.55 490 1.55 498 1.55 532 1.55
 159  0.250  0.958  0.833- 533 1.55 491 1.55 443 1.55 499 1.55
 160  0.417  0.208  0.333- 444 1.55 492 1.55 542 1.55 500 1.55
 161  0.417  0.208  0.833- 543 1.55 445 1.55 493 1.55 501 1.55
 162  0.416  0.458  0.332- 494 1.54 446 1.54 544 1.55 502 1.55
 163  0.417  0.458  0.834- 447 1.54 495 1.54 545 1.55 503 1.55
 164  0.417  0.708  0.333- 496 1.55 504 1.55 546 1.55 448 1.55
 165  0.417  0.708  0.833- 449 1.55 547 1.55 497 1.55 505 1.55
 166  0.417  0.958  0.333- 450 1.55 498 1.55 506 1.55 540 1.55
 167  0.417  0.958  0.833- 541 1.55 499 1.55 451 1.55 507 1.55
 168  0.583  0.208  0.333- 452 1.55 508 1.55 550 1.55 500 1.55
 169  0.583  0.208  0.833- 509 1.55 453 1.55 551 1.55 501 1.55
 170  0.584  0.458  0.332- 510 1.54 454 1.54 552 1.55 502 1.55
 171  0.583  0.459  0.833- 511 1.54 455 1.55 553 1.55 503 1.56
 172  0.583  0.708  0.333- 554 1.55 512 1.55 504 1.55 456 1.55
 173  0.583  0.708  0.833- 457 1.55 555 1.55 513 1.55 505 1.55
 174  0.583  0.958  0.333- 458 1.55 514 1.55 548 1.55 506 1.55
 175  0.583  0.958  0.833- 459 1.55 549 1.55 515 1.55 507 1.55
 176  0.750  0.208  0.333- 460 1.55 558 1.55 508 1.55 516 1.55
 177  0.750  0.208  0.833- 461 1.55 517 1.55 509 1.55 559 1.55
 178  0.750  0.458  0.333- 560 1.55 518 1.55 510 1.55 462 1.55
 179  0.750  0.458  0.833- 463 1.55 519 1.55 561 1.55 511 1.55
 180  0.750  0.708  0.333- 464 1.55 562 1.55 520 1.55 512 1.55
 181  0.750  0.709  0.833- 513 1.54 465 1.55 563 1.55 521 1.55
 182  0.750  0.958  0.333- 466 1.55 514 1.55 522 1.55 556 1.55
 183  0.750  0.958  0.833- 467 1.55 557 1.55 523 1.55 515 1.55
 184  0.917  0.208  0.333- 468 1.55 566 1.55 516 1.55 476 1.55
 185  0.917  0.208  0.833- 517 1.55 469 1.55 567 1.55 477 1.55
 186  0.917  0.458  0.333- 470 1.55 518 1.55 568 1.55 478 1.55
 187  0.917  0.458  0.833- 479 1.55 471 1.55 569 1.55 519 1.55
 188  0.917  0.708  0.333- 472 1.55 520 1.55 480 1.55 570 1.55
 189  0.917  0.708  0.833- 521 1.55 473 1.55 571 1.55 481 1.55
 190  0.917  0.958  0.333- 474 1.55 522 1.55 564 1.55 482 1.55
 191  0.917  0.958  0.833- 523 1.55 565 1.55 475 1.55 483 1.55
 192  1.000  0.167  0.167- 476 1.55 287 1.55 372 1.55 332 1.55
 193  1.000  0.167  0.667- 373 1.55 288 1.55 477 1.55 333 1.55
 194  0.000  0.417  0.167- 334 1.55 478 1.55 374 1.55 289 1.55
 195  1.000  0.417  0.667- 479 1.55 335 1.55 375 1.55 290 1.55
 196  0.000  0.667  0.167- 376 1.55 336 1.55 480 1.55 291 1.55
 197  0.000  0.667  0.667- 377 1.54 337 1.55 292 1.55 481 1.55
 198  0.000  0.917  0.167- 482 1.55 378 1.55 285 1.55 338 1.55
 199  0.000  0.917  0.667- 379 1.55 286 1.55 483 1.55 339 1.55
 200  0.167  0.167  0.167- 484 1.55 295 1.55 332 1.55 340 1.55
 201  0.167  0.167  0.667- 333 1.55 485 1.55 296 1.55 341 1.55
 202  0.167  0.417  0.167- 297 1.55 342 1.55 334 1.55 486 1.55
 203  0.167  0.417  0.667- 335 1.54 487 1.55 298 1.55 343 1.55
 204  0.167  0.667  0.167- 344 1.54 488 1.55 336 1.55 299 1.55
 205  0.167  0.667  0.667- 337 1.55 300 1.55 489 1.55 345 1.55
 206  0.167  0.917  0.167- 490 1.55 338 1.55 293 1.55 346 1.55
 207  0.167  0.917  0.667- 294 1.55 339 1.55 347 1.55 491 1.55
 208  0.333  0.167  0.167- 492 1.55 303 1.55 340 1.55 348 1.55
 209  0.333  0.166  0.667- 304 1.54 341 1.54 493 1.55 349 1.55
 210  0.333  0.417  0.166- 494 1.54 342 1.54 305 1.55 350 1.55
 211  0.333  0.417  0.667- 343 1.54 495 1.54 306 1.55 351 1.55
 212  0.333  0.667  0.167- 496 1.55 307 1.55 344 1.55 352 1.55
 213  0.333  0.667  0.667- 308 1.54 345 1.55 497 1.55 353 1.57
 214  0.333  0.917  0.167- 498 1.55 301 1.55 346 1.55 354 1.55
 215  0.333  0.917  0.667- 499 1.55 347 1.55 302 1.55 355 1.55
 216  0.500  0.167  0.167- 311 1.55 500 1.55 356 1.55 348 1.55
 217  0.500  0.167  0.667- 357 1.55 501 1.55 312 1.55 349 1.55
 218  0.500  0.417  0.166- 502 1.54 358 1.55 350 1.55 313 1.55
 219  0.500  0.667  0.166- 504 1.54 314 1.54 360 1.55 352 1.55
 220  0.500  0.666  0.667- 505 1.54 361 1.55 315 1.55 353 1.55
 221  0.500  0.917  0.167- 309 1.55 506 1.55 354 1.55 362 1.55
 222  0.500  0.917  0.667- 507 1.55 363 1.55 310 1.55 355 1.55
 223  0.667  0.167  0.167- 508 1.55 364 1.55 318 1.55 356 1.55
 224  0.667  0.167  0.667- 365 1.55 319 1.55 509 1.55 357 1.55
 225  0.667  0.417  0.166- 510 1.54 366 1.54 320 1.55 358 1.55
 226  0.666  0.417  0.667- 511 1.54 321 1.55 367 1.55 359 1.55
 227  0.667  0.667  0.167- 512 1.55 322 1.55 368 1.55 360 1.55
 228  0.667  0.668  0.667- 323 1.54 361 1.54 369 1.55 513 1.55
 229  0.667  0.917  0.167- 514 1.55 316 1.55 370 1.55 362 1.55
 230  0.667  0.917  0.667- 317 1.55 515 1.55 371 1.55 363 1.55
 231  0.833  0.167  0.167- 516 1.55 326 1.55 364 1.55 372 1.55
 232  0.833  0.167  0.667- 517 1.55 365 1.55 373 1.55 327 1.55
 233  0.833  0.417  0.167- 374 1.55 328 1.55 518 1.55 366 1.55
 234  0.833  0.417  0.667- 519 1.55 375 1.55 329 1.55 367 1.55
 235  0.833  0.667  0.167- 520 1.55 368 1.55 376 1.55 330 1.55
 236  0.834  0.667  0.667- 369 1.54 377 1.55 331 1.55 521 1.55
 237  0.833  0.917  0.167- 522 1.55 324 1.55 370 1.55 378 1.55
 238  0.833  0.917  0.667- 325 1.55 371 1.55 523 1.55 379 1.55
 239  0.083  0.042  0.167- 524 1.55 332 1.55 293 1.55 285 1.55
 240  0.083  0.042  0.667- 286 1.55 333 1.55 525 1.55 294 1.55
 241  0.083  0.292  0.167- 526 1.55 334 1.55 295 1.55 287 1.55
 242  0.083  0.292  0.667- 288 1.55 335 1.55 527 1.55 296 1.55
 243  0.083  0.542  0.167- 528 1.55 297 1.55 289 1.55 336 1.55
 244  0.083  0.542  0.667- 298 1.54 290 1.54 337 1.55 529 1.55
 245  0.083  0.792  0.167- 299 1.55 530 1.55 291 1.55 338 1.55
 246  0.083  0.792  0.667- 292 1.55 339 1.55 531 1.55 300 1.55
 247  0.250  0.042  0.167- 532 1.55 340 1.55 293 1.55 301 1.55
 248  0.250  0.042  0.667- 341 1.55 294 1.55 533 1.55 302 1.55
 249  0.250  0.292  0.167- 342 1.55 295 1.55 303 1.55 534 1.55
 250  0.250  0.292  0.667- 296 1.54 535 1.55 304 1.55 343 1.55
 251  0.250  0.542  0.167- 536 1.55 297 1.55 344 1.55 305 1.55
 252  0.249  0.541  0.667- 298 1.54 345 1.55 537 1.55 306 1.55
 253  0.250  0.792  0.167- 538 1.55 299 1.55 346 1.55 307 1.55
 254  0.250  0.792  0.667- 347 1.55 300 1.55 308 1.55 539 1.55
 255  0.417  0.042  0.167- 348 1.55 540 1.55 301 1.55 309 1.55
 256  0.417  0.042  0.667- 349 1.55 541 1.55 302 1.55 310 1.55
 257  0.417  0.292  0.167- 542 1.55 303 1.55 350 1.55 311 1.55
 258  0.416  0.291  0.667- 304 1.54 312 1.55 543 1.55 351 1.55
 259  0.417  0.542  0.166- 544 1.54 352 1.55 305 1.55 313 1.55
 260  0.417  0.792  0.167- 307 1.55 354 1.55 314 1.55 546 1.55
 261  0.417  0.791  0.667- 547 1.55 308 1.55 355 1.55 315 1.55
 262  0.583  0.042  0.167- 356 1.55 548 1.55 316 1.55 309 1.55
 263  0.583  0.042  0.667- 317 1.55 549 1.55 357 1.55 310 1.55
 264  0.583  0.292  0.167- 318 1.55 550 1.55 311 1.55 358 1.55
 265  0.583  0.292  0.667- 319 1.54 551 1.55 312 1.55 359 1.57
 266  0.583  0.542  0.166- 552 1.54 320 1.55 360 1.55 313 1.55
 267  0.583  0.792  0.167- 362 1.55 322 1.55 554 1.55 314 1.55
 268  0.583  0.792  0.667- 555 1.55 363 1.55 323 1.55 315 1.55
 269  0.750  0.042  0.167- 556 1.55 364 1.55 316 1.55 324 1.55
 270  0.750  0.042  0.667- 365 1.55 325 1.55 557 1.55 317 1.55
 271  0.750  0.292  0.167- 326 1.55 318 1.55 366 1.55 558 1.55
 272  0.750  0.292  0.667- 559 1.55 319 1.55 327 1.55 367 1.55
 273  0.750  0.542  0.167- 560 1.55 328 1.55 368 1.55 320 1.55
 274  0.751  0.542  0.666- 329 1.54 321 1.54 369 1.55 561 1.55
 275  0.750  0.792  0.167- 562 1.55 370 1.55 330 1.55 322 1.55
 276  0.750  0.792  0.667- 323 1.54 371 1.54 563 1.55 331 1.55
 277  0.917  0.042  0.167- 564 1.55 372 1.55 324 1.55 285 1.55
 278  0.917  0.042  0.667- 325 1.55 373 1.55 565 1.55 286 1.55
 279  0.917  0.292  0.167- 326 1.55 566 1.55 374 1.55 287 1.55
 280  0.917  0.292  0.667- 567 1.55 327 1.55 375 1.55 288 1.55
 281  0.917  0.542  0.167- 568 1.55 289 1.55 328 1.55 376 1.55
 282  0.917  0.542  0.667- 329 1.54 290 1.54 377 1.55 569 1.55
 283  0.917  0.792  0.167- 330 1.55 570 1.55 378 1.55 291 1.55
 284  0.917  0.792  0.667- 331 1.54 379 1.55 292 1.55 571 1.55
 285  0.000  0.000  0.125-   1 1.55 198 1.55 239 1.55 277 1.55
 286  0.000  0.000  0.625- 240 1.55   2 1.55 199 1.55 278 1.55
 287  1.000  0.250  0.125-   3 1.55 192 1.55 279 1.55 241 1.55
 288  1.000  0.250  0.625- 242 1.55   4 1.55 193 1.55 280 1.55
 289  0.000  0.500  0.125-   5 1.55 281 1.55 243 1.55 194 1.55
 290  0.000  0.500  0.625- 282 1.54 244 1.54   6 1.55 195 1.55
 291  0.000  0.750  0.125-   7 1.55 245 1.55 283 1.55 196 1.55
 292  0.000  0.750  0.625- 246 1.55   8 1.55 197 1.55 284 1.55
 293  0.167  1.000  0.125-   9 1.55 247 1.55 206 1.55 239 1.55
 294  0.167  1.000  0.625- 248 1.55 207 1.55  10 1.55 240 1.55
 295  0.167  0.250  0.125-  11 1.55 200 1.55 241 1.55 249 1.55
 296  0.167  0.250  0.625- 250 1.54  12 1.55 242 1.55 201 1.55
 297  0.167  0.500  0.125-  13 1.55 243 1.55 251 1.55 202 1.55
 298  0.166  0.500  0.625- 252 1.54 244 1.54  14 1.55 203 1.55
 299  0.167  0.750  0.125- 245 1.55  15 1.55 253 1.55 204 1.55
 300  0.167  0.750  0.625-  16 1.55 254 1.55 246 1.55 205 1.55
 301  0.333  1.000  0.125-  17 1.55 255 1.55 214 1.55 247 1.55
 302  0.333  1.000  0.625-  18 1.55 215 1.55 256 1.55 248 1.55
 303  0.333  0.250  0.125-  19 1.55 208 1.55 257 1.55 249 1.55
 304  0.333  0.250  0.625- 258 1.54 209 1.54  20 1.55 250 1.55
 305  0.333  0.500  0.125-  21 1.54 259 1.55 251 1.55 210 1.55
 306  0.334  0.500  0.626- 575 1.49 211 1.55  22 1.55 252 1.55
 307  0.333  0.750  0.125-  23 1.55 260 1.55 212 1.55 253 1.55
 308  0.333  0.750  0.625- 213 1.54  24 1.55 261 1.55 254 1.55
 309  0.500  1.000  0.125- 221 1.55  25 1.55 255 1.55 262 1.55
 310  0.500  1.000  0.625-  26 1.55 256 1.55 222 1.55 263 1.55
 311  0.500  0.250  0.125-  27 1.54 216 1.55 257 1.55 264 1.55
 312  0.500  0.250  0.625-  28 1.55 217 1.55 265 1.55 258 1.55
 313  0.500  0.500  0.125-  29 1.54 259 1.55 218 1.55 266 1.55
 314  0.500  0.750  0.125- 219 1.54  30 1.54 260 1.55 267 1.55
 315  0.500  0.749  0.625-  31 1.55 261 1.55 268 1.55 220 1.55
 316  0.667  1.000  0.125-  32 1.55 229 1.55 262 1.55 269 1.55
 317  0.667  0.000  0.625-  33 1.55 230 1.55 263 1.55 270 1.55
 318  0.667  0.250  0.125-  34 1.55 264 1.55 223 1.55 271 1.55
 319  0.667  0.250  0.625- 265 1.54  35 1.55 224 1.55 272 1.55
 320  0.667  0.500  0.125-  36 1.54 266 1.55 225 1.55 273 1.55
 321  0.668  0.501  0.626- 572 1.52 274 1.54 226 1.55  37 1.55
 322  0.667  0.750  0.125-  38 1.55 227 1.55 267 1.55 275 1.55
 323  0.667  0.750  0.625- 228 1.54 276 1.54  39 1.55 268 1.55
 324  0.833  0.000  0.125-  40 1.55 277 1.55 237 1.55 269 1.55
 325  0.833  0.000  0.625- 238 1.55 278 1.55  41 1.55 270 1.55
 326  0.833  0.250  0.125- 279 1.55  42 1.55 231 1.55 271 1.55
 327  0.833  0.250  0.625-  43 1.55 280 1.55 232 1.55 272 1.55
 328  0.833  0.500  0.125-  44 1.55 273 1.55 281 1.55 233 1.55
 329  0.834  0.500  0.625- 274 1.54 282 1.54  45 1.55 234 1.55
 330  0.833  0.750  0.125-  46 1.55 283 1.55 275 1.55 235 1.55
 331  0.834  0.750  0.625- 284 1.54 236 1.55  47 1.55 276 1.55
 332  0.083  0.125  0.125-  48 1.55 239 1.55 200 1.55 192 1.55
 333  0.083  0.125  0.625- 201 1.55 240 1.55  49 1.55 193 1.55
 334  0.083  0.375  0.125- 194 1.55  50 1.55 241 1.55 202 1.55
 335  0.083  0.375  0.625- 203 1.54 242 1.55  51 1.55 195 1.55
 336  0.083  0.625  0.125- 196 1.55  52 1.55 204 1.55 243 1.55
 337  0.083  0.625  0.625- 197 1.55  53 1.55 205 1.55 244 1.55
 338  0.083  0.875  0.125-  54 1.55 206 1.55 245 1.55 198 1.55
 339  0.083  0.875  0.625- 207 1.55  55 1.55 246 1.55 199 1.55
 340  0.250  0.125  0.125-  56 1.55 247 1.55 208 1.55 200 1.55
 341  0.250  0.125  0.625- 209 1.54 248 1.55  57 1.55 201 1.55
 342  0.250  0.375  0.125-  58 1.54 210 1.54 249 1.55 202 1.55
 343  0.250  0.375  0.625- 211 1.54  59 1.55 203 1.55 250 1.55
 344  0.250  0.625  0.125-  60 1.54 204 1.54 251 1.55 212 1.55
 345  0.250  0.625  0.625-  61 1.55 205 1.55 213 1.55 252 1.55
 346  0.250  0.875  0.125-  62 1.55 214 1.55 253 1.55 206 1.55
 347  0.250  0.875  0.625- 254 1.55  63 1.55 215 1.55 207 1.55
 348  0.417  0.125  0.125- 255 1.55  64 1.55 216 1.55 208 1.55
 349  0.417  0.125  0.625- 256 1.55  65 1.55 217 1.55 209 1.55
 350  0.417  0.375  0.125-  66 1.54 218 1.55 257 1.55 210 1.55
 351  0.417  0.375  0.626- 574 1.49 211 1.55  67 1.55 258 1.55
 352  0.417  0.625  0.125-  68 1.54 259 1.55 219 1.55 212 1.55
 353  0.417  0.623  0.626- 575 1.51  69 1.55 220 1.55 213 1.57
 354  0.417  0.875  0.125- 260 1.55 221 1.55  70 1.55 214 1.55
 355  0.417  0.875  0.625-  71 1.55 222 1.55 261 1.55 215 1.55
 356  0.583  0.125  0.125- 262 1.55  72 1.55 216 1.55 223 1.55
 357  0.583  0.125  0.625-  73 1.55 263 1.55 217 1.55 224 1.55
 358  0.583  0.375  0.125-  74 1.54 218 1.55 264 1.55 225 1.55
 359  0.581  0.376  0.626- 574 1.51  75 1.55 226 1.55 265 1.57
 360  0.583  0.625  0.125-  76 1.54 266 1.55 219 1.55 227 1.55
 361  0.585  0.625  0.626- 572 1.52 228 1.54 220 1.55  77 1.55
 362  0.583  0.875  0.125- 267 1.55  78 1.55 221 1.55 229 1.55
 363  0.583  0.875  0.625-  79 1.55 268 1.55 222 1.55 230 1.55
 364  0.750  0.125  0.125-  80 1.55 269 1.55 223 1.55 231 1.55
 365  0.750  0.125  0.625- 224 1.55  81 1.55 270 1.55 232 1.55
 366  0.750  0.375  0.125- 225 1.54  82 1.54 271 1.55 233 1.55
 367  0.749  0.375  0.625-  83 1.55 272 1.55 234 1.55 226 1.55
 368  0.750  0.625  0.125-  84 1.54 235 1.55 227 1.55 273 1.55
 369  0.751  0.625  0.625- 236 1.54  85 1.55 274 1.55 228 1.55
 370  0.750  0.875  0.125-  86 1.55 275 1.55 237 1.55 229 1.55
 371  0.750  0.875  0.625- 276 1.54 238 1.55  87 1.55 230 1.55
 372  0.917  0.125  0.125- 277 1.55  88 1.55 192 1.55 231 1.55
 373  0.917  0.125  0.625- 193 1.55  89 1.55 278 1.55 232 1.55
 374  0.917  0.375  0.125- 233 1.55  90 1.55 194 1.55 279 1.55
 375  0.917  0.375  0.625-  91 1.55 280 1.55 195 1.55 234 1.55
 376  0.917  0.625  0.125- 196 1.55  92 1.55 235 1.55 281 1.55
 377  0.917  0.625  0.625- 197 1.54 236 1.55  93 1.55 282 1.55
 378  0.917  0.875  0.125-  94 1.55 198 1.55 283 1.55 237 1.55
 379  0.917  0.875  0.625- 199 1.55 284 1.55  95 1.55 238 1.55
 380  1.000  0.083  0.458-  96 1.55  49 1.55   2 1.55  89 1.55
 381  1.000  0.083  0.958-  48 1.55   1 1.55  97 1.55  88 1.55
 382  1.000  0.333  0.458-  98 1.55   4 1.55  51 1.55  91 1.55
 383  1.000  0.333  0.958-  90 1.55  50 1.55  99 1.55   3 1.55
 384  0.000  0.583  0.458- 100 1.55  93 1.55   6 1.55  53 1.55
 385  0.000  0.583  0.958-  92 1.55  52 1.55 101 1.55   5 1.55
 386  0.000  0.833  0.458- 102 1.55  55 1.55   8 1.55  95 1.55
 387  0.000  0.833  0.958-  54 1.55 103 1.55  94 1.55   7 1.55
 388  0.167  0.083  0.458- 104 1.55  57 1.55  49 1.55  10 1.55
 389  0.167  0.083  0.958-   9 1.55  56 1.55 105 1.55  48 1.55
 390  0.167  0.333  0.458- 106 1.55  12 1.55  51 1.55  59 1.55
 391  0.167  0.333  0.958-  58 1.55 107 1.55  11 1.55  50 1.55
 392  0.167  0.583  0.458-  14 1.55  61 1.55 108 1.55  53 1.55
 393  0.167  0.583  0.959-  52 1.55 109 1.55  13 1.55  60 1.55
 394  0.167  0.833  0.458-  63 1.55 110 1.55  16 1.55  55 1.55
 395  0.167  0.833  0.958-  62 1.55  15 1.55 111 1.55  54 1.55
 396  0.333  0.083  0.458- 112 1.55  65 1.55  57 1.55  18 1.55
 397  0.333  0.083  0.958-  17 1.55 113 1.55  64 1.55  56 1.55
 398  0.334  0.334  0.459-  59 1.54 114 1.55  20 1.55  67 1.56
 399  0.333  0.333  0.958- 115 1.55  19 1.55  58 1.55  66 1.55
 400  0.334  0.583  0.459-  22 1.54  69 1.54  61 1.55 116 1.55
 401  0.333  0.583  0.959- 117 1.54  60 1.54  21 1.55  68 1.55
 402  0.334  0.833  0.458- 118 1.55  71 1.55  63 1.55  24 1.55
 403  0.333  0.833  0.958-  23 1.55 119 1.55  70 1.55  62 1.55
 404  0.500  0.083  0.458- 120 1.55  65 1.55  73 1.55  26 1.55
 405  0.500  0.083  0.958-  25 1.55 121 1.55  64 1.55  72 1.55
 406  0.500  0.334  0.459-  67 1.54  75 1.54  28 1.55 122 1.55
 407  0.500  0.333  0.959- 123 1.54  27 1.54  66 1.55  74 1.55
 408  0.500  0.582  0.456- 576 1.48 124 1.54  69 1.56  77 1.56
 409  0.500  0.583  0.958-  29 1.55 125 1.55  68 1.55  76 1.55
 410  0.500  0.833  0.458- 126 1.55  71 1.55  79 1.55  31 1.55
 411  0.500  0.833  0.958-  30 1.55 127 1.55  70 1.55  78 1.55
 412  0.667  0.083  0.458- 128 1.55  81 1.55  73 1.55  33 1.55
 413  0.667  0.083  0.958-  32 1.55  72 1.55 129 1.55  80 1.55
 414  0.666  0.334  0.459-  83 1.54 130 1.55  35 1.55  75 1.56
 415  0.667  0.333  0.958- 131 1.55  74 1.55  82 1.55  34 1.55
 416  0.667  0.583  0.458-  37 1.54  77 1.54  85 1.55 132 1.55
 417  0.667  0.584  0.959- 133 1.54  84 1.54  76 1.55  36 1.55
 418  0.667  0.833  0.458- 134 1.55  79 1.55  39 1.55  87 1.55
 419  0.667  0.833  0.958- 135 1.55  38 1.55  86 1.55  78 1.55
 420  0.833  0.083  0.458- 136 1.55  89 1.55  41 1.55  81 1.55
 421  0.833  0.083  0.958-  40 1.55 137 1.55  80 1.55  88 1.55
 422  0.833  0.334  0.458- 138 1.55  43 1.55  91 1.55  83 1.55
 423  0.833  0.333  0.958-  82 1.55 139 1.55  42 1.55  90 1.55
 424  0.833  0.583  0.458-  85 1.55  45 1.55 140 1.55  93 1.55
 425  0.834  0.583  0.958-  92 1.55 141 1.55  44 1.55  84 1.55
 426  0.833  0.833  0.458- 142 1.55  47 1.55  87 1.55  95 1.55
 427  0.833  0.833  0.958-  94 1.55 143 1.55  46 1.55  86 1.55
 428  0.083  0.208  0.458- 144 1.55  49 1.55  12 1.55   4 1.55
 429  0.083  0.208  0.958-  11 1.55  48 1.55 145 1.55   3 1.55
 430  0.084  0.458  0.458- 146 1.55  51 1.55  14 1.55   6 1.55
 431  0.083  0.458  0.958-  13 1.55   5 1.55 147 1.55  50 1.55
 432  0.083  0.708  0.458- 148 1.55  16 1.55  53 1.55   8 1.55
 433  0.083  0.708  0.958-  15 1.55   7 1.55 149 1.55  52 1.55
 434  0.083  0.958  0.458- 150 1.55  10 1.55  55 1.55   2 1.55
 435  0.083  0.958  0.958-   9 1.55  54 1.55 151 1.55   1 1.55
 436  0.250  0.209  0.458- 152 1.55  12 1.55  20 1.55  57 1.55
 437  0.250  0.208  0.958-  56 1.55 153 1.55  19 1.55  11 1.55
 438  0.251  0.458  0.459-  59 1.54 154 1.55  14 1.55  22 1.56
 439  0.250  0.458  0.958- 155 1.55  13 1.55  21 1.55  58 1.55
 440  0.250  0.708  0.458-  24 1.55  61 1.55 156 1.55  16 1.55
 441  0.250  0.708  0.958-  15 1.55  23 1.55 157 1.55  60 1.55
 442  0.250  0.958  0.458- 158 1.55  18 1.55  10 1.55  63 1.55
 443  0.250  0.958  0.958-  62 1.55  17 1.55 159 1.55   9 1.55
 444  0.417  0.208  0.458-  20 1.55  28 1.55 160 1.55  65 1.55
 445  0.417  0.208  0.958-  64 1.55 161 1.55  19 1.55  27 1.55
 446  0.419  0.459  0.457- 576 1.48 162 1.54  22 1.56  67 1.56
 447  0.417  0.458  0.958- 163 1.54  29 1.55  21 1.55  66 1.55
 448  0.417  0.707  0.459-  31 1.54 164 1.55  24 1.55  69 1.56
 449  0.417  0.708  0.958- 165 1.55  68 1.55  23 1.55  30 1.55
 450  0.417  0.958  0.458- 166 1.55  18 1.55  26 1.55  71 1.55
 451  0.417  0.958  0.958-  70 1.55  17 1.55 167 1.55  25 1.55
 452  0.583  0.209  0.458-  35 1.55  28 1.55 168 1.55  73 1.55
 453  0.583  0.208  0.958-  72 1.55  34 1.55 169 1.55  27 1.55
 454  0.582  0.459  0.456- 576 1.48 170 1.54  75 1.56  37 1.56
 455  0.583  0.458  0.958-  29 1.55 171 1.55  74 1.55  36 1.55
 456  0.583  0.708  0.458-  31 1.55 172 1.55  39 1.55  77 1.55
 457  0.583  0.708  0.958- 173 1.55  76 1.55  38 1.55  30 1.55
 458  0.583  0.958  0.458- 174 1.55  26 1.55  33 1.55  79 1.55
 459  0.583  0.958  0.958-  78 1.55 175 1.55  32 1.55  25 1.55
 460  0.750  0.209  0.458- 176 1.55  43 1.55  81 1.55  35 1.55
 461  0.750  0.208  0.958-  34 1.55 177 1.55  42 1.55  80 1.55
 462  0.749  0.458  0.458-  83 1.54 178 1.55  45 1.55  37 1.55
 463  0.750  0.458  0.958- 179 1.55  36 1.55  82 1.55  44 1.55
 464  0.750  0.708  0.458-  85 1.55  39 1.55 180 1.55  47 1.55
 465  0.750  0.708  0.958-  46 1.55 181 1.55  38 1.55  84 1.55
 466  0.750  0.958  0.458- 182 1.55  33 1.55  87 1.55  41 1.55
 467  0.750  0.958  0.958-  86 1.55 183 1.55  40 1.55  32 1.55
 468  0.917  0.208  0.458- 184 1.55  89 1.55   4 1.55  43 1.55
 469  0.917  0.208  0.958-  42 1.55  88 1.55   3 1.55 185 1.55
 470  0.917  0.458  0.458- 186 1.55  91 1.55  45 1.55   6 1.55
 471  0.917  0.458  0.958-  44 1.55 187 1.55   5 1.55  90 1.55
 472  0.917  0.708  0.458- 188 1.55   8 1.55  47 1.55  93 1.55
 473  0.917  0.708  0.958-   7 1.55  46 1.55 189 1.55  92 1.55
 474  0.917  0.958  0.458- 190 1.55  95 1.55   2 1.55  41 1.55
 475  0.917  0.958  0.958-   1 1.55  94 1.55 191 1.55  40 1.55
 476  1.000  0.167  0.292- 192 1.55  96 1.55 144 1.55 184 1.55
 477  1.000  0.167  0.792-  97 1.55 145 1.55 193 1.55 185 1.55
 478  0.000  0.417  0.292- 194 1.55  98 1.55 186 1.55 146 1.55
 479  1.000  0.417  0.792- 187 1.55 195 1.55 147 1.55  99 1.55
 480  0.000  0.667  0.292- 196 1.55 148 1.55 188 1.55 100 1.55
 481  0.000  0.667  0.792- 149 1.55 197 1.55 189 1.55 101 1.55
 482  0.000  0.917  0.292- 198 1.55 150 1.55 102 1.55 190 1.55
 483  0.000  0.917  0.792- 151 1.55 199 1.55 103 1.55 191 1.55
 484  0.167  0.167  0.292- 200 1.55 104 1.55 144 1.55 152 1.55
 485  0.167  0.167  0.792- 153 1.55 105 1.55 201 1.55 145 1.55
 486  0.167  0.417  0.292- 146 1.55 106 1.55 202 1.55 154 1.55
 487  0.167  0.417  0.792- 155 1.55 147 1.55 203 1.55 107 1.55
 488  0.167  0.667  0.292- 204 1.55 148 1.55 156 1.55 108 1.55
 489  0.167  0.667  0.792- 157 1.55 205 1.55 149 1.55 109 1.55
 490  0.167  0.917  0.292- 206 1.55 158 1.55 150 1.55 110 1.55
 491  0.167  0.917  0.792- 159 1.55 111 1.55 207 1.55 151 1.55
 492  0.333  0.167  0.292- 208 1.55 160 1.55 152 1.55 112 1.55
 493  0.333  0.167  0.792- 113 1.55 153 1.55 161 1.55 209 1.55
 494  0.333  0.417  0.291- 162 1.54 210 1.54 114 1.55 154 1.55
 495  0.333  0.417  0.792- 211 1.54 163 1.54 155 1.55 115 1.55
 496  0.333  0.667  0.292- 116 1.55 164 1.55 212 1.55 156 1.55
 497  0.333  0.666  0.792- 165 1.55 157 1.55 117 1.55 213 1.55
 498  0.333  0.917  0.292- 166 1.55 214 1.55 158 1.55 118 1.55
 499  0.333  0.917  0.792- 119 1.55 215 1.55 167 1.55 159 1.55
 500  0.500  0.167  0.292- 216 1.55 120 1.55 168 1.55 160 1.55
 501  0.500  0.167  0.792- 217 1.55 121 1.55 161 1.55 169 1.55
 502  0.500  0.417  0.291- 218 1.54 122 1.55 162 1.55 170 1.55
 503  0.499  0.416  0.791- 574 1.49 163 1.55 123 1.55 171 1.56
 504  0.500  0.667  0.291- 124 1.54 219 1.54 164 1.55 172 1.55
 505  0.500  0.666  0.792- 125 1.54 220 1.54 165 1.55 173 1.55
 506  0.500  0.917  0.292- 221 1.55 166 1.55 174 1.55 126 1.55
 507  0.500  0.917  0.792- 127 1.55 222 1.55 167 1.55 175 1.55
 508  0.667  0.167  0.292- 223 1.55 168 1.55 176 1.55 128 1.55
 509  0.667  0.167  0.792- 169 1.55 129 1.55 224 1.55 177 1.55
 510  0.667  0.417  0.291- 170 1.54 225 1.54 130 1.55 178 1.55
 511  0.666  0.417  0.791- 171 1.54 226 1.54 131 1.55 179 1.55
 512  0.667  0.667  0.292- 132 1.55 227 1.55 172 1.55 180 1.55
 513  0.667  0.667  0.792- 181 1.54 173 1.55 133 1.55 228 1.55
 514  0.667  0.917  0.292- 229 1.55 174 1.55 134 1.55 182 1.55
 515  0.667  0.917  0.792- 135 1.55 230 1.55 175 1.55 183 1.55
 516  0.833  0.167  0.292- 231 1.55 184 1.55 136 1.55 176 1.55
 517  0.833  0.167  0.792- 232 1.55 185 1.55 177 1.55 137 1.55
 518  0.833  0.417  0.292- 138 1.55 178 1.55 186 1.55 233 1.55
 519  0.833  0.417  0.792- 179 1.55 234 1.55 139 1.55 187 1.55
 520  0.833  0.667  0.292- 235 1.55 188 1.55 180 1.55 140 1.55
 521  0.834  0.667  0.792- 189 1.55 181 1.55 236 1.55 141 1.55
 522  0.833  0.917  0.292- 237 1.55 142 1.55 190 1.55 182 1.55
 523  0.833  0.917  0.792- 191 1.55 143 1.55 238 1.55 183 1.55
 524  0.083  0.042  0.292- 239 1.55 104 1.55 150 1.55  96 1.55
 525  0.083  0.042  0.792- 105 1.55 151 1.55 240 1.55  97 1.55
 526  0.083  0.292  0.292- 241 1.55 144 1.55  98 1.55 106 1.55
 527  0.083  0.292  0.792- 107 1.55 242 1.55 145 1.55  99 1.55
 528  0.083  0.542  0.292- 243 1.55 100 1.55 146 1.55 108 1.55
 529  0.083  0.542  0.792- 101 1.55 109 1.55 147 1.55 244 1.55
 530  0.083  0.792  0.292- 245 1.55 110 1.55 102 1.55 148 1.55
 531  0.083  0.792  0.792- 111 1.55 246 1.55 149 1.55 103 1.55
 532  0.250  0.042  0.292- 247 1.55 112 1.55 104 1.55 158 1.55
 533  0.250  0.042  0.792- 159 1.55 113 1.55 248 1.55 105 1.55
 534  0.250  0.292  0.292- 152 1.55 106 1.55 249 1.55 114 1.55
 535  0.250  0.292  0.792- 115 1.55 250 1.55 153 1.55 107 1.55
 536  0.250  0.542  0.292- 251 1.55 116 1.55 154 1.55 108 1.55
 537  0.250  0.542  0.792- 109 1.55 155 1.55 252 1.55 117 1.55
 538  0.250  0.792  0.292- 253 1.55 118 1.55 110 1.55 156 1.55
 539  0.250  0.792  0.792- 119 1.55 111 1.55 157 1.55 254 1.55
 540  0.417  0.042  0.292- 255 1.55 112 1.55 166 1.55 120 1.55
 541  0.417  0.042  0.792- 167 1.55 256 1.55 113 1.55 121 1.55
 542  0.417  0.292  0.292- 257 1.55 114 1.55 122 1.55 160 1.55
 543  0.416  0.292  0.792- 161 1.55 115 1.55 258 1.55 123 1.55
 544  0.417  0.542  0.291- 259 1.54 116 1.55 162 1.55 124 1.55
 545  0.416  0.541  0.791- 575 1.49 163 1.55 117 1.55 125 1.56
 546  0.417  0.792  0.292- 118 1.55 126 1.55 260 1.55 164 1.55
 547  0.417  0.791  0.792- 261 1.55 165 1.55 119 1.55 127 1.55
 548  0.583  0.042  0.292- 262 1.55 128 1.55 174 1.55 120 1.55
 549  0.583  0.042  0.792- 263 1.55 175 1.55 129 1.55 121 1.55
 550  0.583  0.292  0.292- 122 1.55 130 1.55 264 1.55 168 1.55
 551  0.583  0.292  0.792- 131 1.55 169 1.55 265 1.55 123 1.55
 552  0.584  0.542  0.291- 266 1.54 132 1.55 124 1.55 170 1.55
 553  0.585  0.542  0.792- 572 1.52 133 1.54 125 1.55 171 1.55
 554  0.583  0.792  0.292- 172 1.55 134 1.55 126 1.55 267 1.55
 555  0.583  0.792  0.792- 173 1.55 268 1.55 127 1.55 135 1.55
 556  0.750  0.042  0.292- 269 1.55 136 1.55 182 1.55 128 1.55
 557  0.750  0.042  0.792- 270 1.55 183 1.55 129 1.55 137 1.55
 558  0.750  0.292  0.292- 176 1.55 138 1.55 271 1.55 130 1.55
 559  0.750  0.292  0.792- 272 1.55 131 1.55 139 1.55 177 1.55
 560  0.750  0.542  0.292- 132 1.55 273 1.55 178 1.55 140 1.55
 561  0.750  0.542  0.792- 141 1.54 179 1.55 133 1.55 274 1.55
 562  0.750  0.792  0.292- 275 1.55 180 1.55 142 1.55 134 1.55
 563  0.750  0.792  0.792- 143 1.55 181 1.55 135 1.55 276 1.55
 564  0.917  0.042  0.292- 277 1.55 190 1.55  96 1.55 136 1.55
 565  0.917  0.042  0.792- 191 1.55  97 1.55 278 1.55 137 1.55
 566  0.917  0.292  0.292- 279 1.55 184 1.55  98 1.55 138 1.55
 567  0.917  0.292  0.792- 139 1.55 280 1.55  99 1.55 185 1.55
 568  0.917  0.542  0.292- 281 1.55 140 1.55 186 1.55 100 1.55
 569  0.917  0.542  0.792- 101 1.55 141 1.55 187 1.55 282 1.55
 570  0.917  0.792  0.292- 283 1.55 102 1.55 142 1.55 188 1.55
 571  0.917  0.792  0.792- 103 1.55 143 1.55 284 1.55 189 1.55
 572  0.589  0.545  0.669- 573 1.09 361 1.52 321 1.52 553 1.52
 573  0.530  0.515  0.642- 572 1.09
 574  0.498  0.411  0.671- 351 1.49 503 1.49 359 1.51
 575  0.410  0.543  0.671- 306 1.49 545 1.49 353 1.51
 576  0.500  0.500  0.488- 408 1.48 454 1.48 446 1.48
 
  LATTYP: Found a simple monoclinic cell.
 ALAT       =    12.3703241348
 B/A-ratio  =     1.2248453018
 C/A-ratio  =     1.4141600350
 COS(beta)  =    -0.0000282295
  
  Lattice vectors:
  
 A1 = (   0.0000000000,  -0.0003492082,  12.3703241299)
 A2 = (  15.1517333984,   0.0000000000,   0.0000000000)
 A3 = (   0.0000000000,  17.4936180115,   0.0000000000)


Analysis of symmetry for initial positions (statically):
=====================================================================
 Subroutine PRICEL returns:
 Original cell was already a primitive cell.
 

 Routine SETGRP: Setting up the symmetry group for a 
 simple monoclinic supercell.


 Subroutine GETGRP returns: Found  1 space group operations
 (whereof  1 operations were pure point group operations)
 out of a pool of  4 trial point group operations.


The static configuration has the point symmetry C_1 .


Analysis of symmetry for dynamics (positions and initial velocities):
=====================================================================
 Subroutine PRICEL returns:
 Original cell was already a primitive cell.
 

 Routine SETGRP: Setting up the symmetry group for a 
 simple monoclinic supercell.


 Subroutine GETGRP returns: Found  1 space group operations
 (whereof  1 operations were pure point group operations)
 out of a pool of  4 trial point group operations.


The dynamic configuration has the point symmetry C_1 .


Analysis of structural, dynamic, and magnetic symmetry:
=====================================================================
 Subroutine PRICEL returns:
 Original cell was already a primitive cell.
 

 Routine SETGRP: Setting up the symmetry group for a 
 simple monoclinic supercell.


 Subroutine GETGRP returns: Found  1 space group operations
 (whereof  1 operations were pure point group operations)
 out of a pool of  4 trial point group operations.


The overall configuration has the point symmetry C_1 .


 Subroutine INISYM returns: Found  1 space group operations
 (whereof  1 operations are pure point group operations),
 and found     1 'primitive' translations


----------------------------------------------------------------------------------------

                                     Primitive cell                                     

  volume of cell :    3278.8612

  direct lattice vectors                    reciprocal lattice vectors
    15.151733398  0.000000000  0.000000000     0.065999049  0.000000000  0.000000000
     0.000000000 17.493618012  0.000000000     0.000000000  0.057163704  0.000001614
     0.000000000 -0.000349208 12.370324130     0.000000000  0.000000000  0.080838626

  length of vectors
    15.151733398 17.493618012 12.370324135     0.065999049  0.057163704  0.080838626

  position of ions in fractional coordinates (direct lattice)
     0.000011530  0.000032035  0.000029546
     0.000009709  0.000046263  0.499994230
     0.999980674  0.250002425  0.000017939
     0.999966443  0.250054491  0.500011138
     0.000022937  0.499998099  0.000072759
     0.000063337  0.500003371  0.500047238
     0.000051061  0.750030274  0.000091927
     0.000077309  0.750012051  0.500079796
     0.166668206  0.999988450  0.000040709
     0.166705680  0.999978638  0.500013786
     0.166632580  0.249978670  0.000035498
     0.166718088  0.250074487  0.500049589
     0.166637028  0.499971589  0.000092000
     0.166998982  0.499982878  0.500153821
     0.166683638  0.750003923  0.000110636
     0.166778401  0.749908453  0.500092427
     0.333331753  0.999950267  0.000056392
     0.333370760  0.999931694  0.500039126
     0.333296323  0.249952220  0.000073769
     0.333508268  0.250236753  0.500147973
     0.333239176  0.499975873  0.000102480
     0.334745223  0.500253485  0.500663623
     0.333371990  0.749961820  0.000001101
     0.333582067  0.749536896  0.500149269
     0.499991432  0.999976346  0.000038302
     0.499996057  0.999957860  0.500051255
     0.499971936  0.249841099  0.000409425
     0.499949787  0.250185804  0.500124870
     0.499961904  0.499961973  0.999690221
     0.500020381  0.750015905  0.999864073
     0.500065763  0.749537447  0.500130967
     0.666655351  0.000010592  0.000027941
     0.666626578  0.000006653  0.500037356
     0.666642915  0.250033484  0.999967898
     0.666342541  0.250406181  0.500136645
     0.666726759  0.500034624  0.999835517
     0.665757610  0.500577535  0.500283500
     0.666716919  0.750040480  0.999987306
     0.666658976  0.749808878  0.500041481
     0.833345796  0.000040206  0.000023794
     0.833312531  0.000068840  0.500013159
     0.833326560  0.250032238  0.999985192
     0.833202296  0.250156347  0.500039325
     0.833400242  0.500026110  0.000005244
     0.833182867  0.500090151  0.500025314
     0.833441891  0.750077422  0.000113579
     0.833411395  0.750055295  0.500047222
     0.083318394  0.125005005  0.000023361
     0.083338276  0.125043569  0.499998993
     0.083312553  0.374980651  0.000020511
     0.083398244  0.375028803  0.500061459
     0.083332121  0.625005405  0.000169051
     0.083465822  0.624952963  0.500100119
     0.083364427  0.875021037  0.000059213
     0.083391765  0.874994194  0.500031906
     0.249982916  0.124957448  0.000048836
     0.250045860  0.125039002  0.500028509
     0.249913156  0.374937246  0.999972176
     0.250300409  0.375143602  0.500208140
     0.249848727  0.625042720  0.000473213
     0.250222492  0.624822322  0.500144407
     0.250018832  0.874965229  0.000036138
     0.250097369  0.874841473  0.500050145
     0.416643181  0.124941125  0.000106969
     0.416666423  0.125046206  0.500067534
     0.416604004  0.374884243  0.000076086
     0.417626915  0.375897183  0.500670701
     0.416634184  0.624983394  0.999872549
     0.417229300  0.623487738  0.500460733
     0.416683689  0.874966006  0.999998622
     0.416741409  0.874792251  0.500059063
     0.583323999  0.124983122  0.000059564
     0.583280809  0.125099502  0.500061474
     0.583297827  0.374963755  0.999832757
     0.582113447  0.376151987  0.500479274
     0.583397827  0.625036171  0.999820259
     0.583459309  0.624037168  0.500284867
     0.583342594  0.875006827  0.999988709
     0.583310946  0.874856558  0.500044508
     0.749983264  0.125023889  0.000005936
     0.749888246  0.125144959  0.500029870
     0.750043871  0.375006807  0.999817363
     0.749562523  0.375288628  0.500112340
     0.750248256  0.625127169  0.000360639
     0.750177245  0.625074556  0.499998182
     0.750038532  0.875039278  0.000034967
     0.750005867  0.874986496  0.500025273
     0.916662297  0.125032834  0.000012743
     0.916621054  0.125079350  0.500001275
     0.916683508  0.375004983  0.999977594
     0.916555951  0.375067951  0.500038653
     0.916775075  0.625040971  0.000154467
     0.916785562  0.625018243  0.500058203
     0.916722390  0.875052790  0.000063665
     0.916717116  0.875056758  0.500035400
     0.999998115  0.083379080  0.333345465
     0.999987000  0.083362716  0.833329551
     0.999992570  0.333359597  0.333385275
     0.999962123  0.333327145  0.833314430
     0.000065550  0.583320215  0.333415596
     0.000068893  0.583339721  0.833438152
     0.000042140  0.833356230  0.333404272
     0.000058608  0.833373285  0.833380707
     0.166701425  0.083354193  0.333344894
     0.166658744  0.083300698  0.833334400
     0.166746851  0.333374574  0.333434243
     0.166596895  0.333274913  0.833312842
     0.166769530  0.583275004  0.333458397
     0.166635961  0.583255852  0.833493040
     0.166736940  0.833292245  0.333403729
     0.166722819  0.833312413  0.833361944
     0.333341579  0.083327966  0.333394505
     0.333281773  0.083254410  0.833368494
     0.333421817  0.333463424  0.333389820
     0.333197471  0.333274410  0.833407536
     0.333442623  0.583248619  0.333286118
     0.333009214  0.583313961  0.834631716
     0.333391221  0.833217464  0.333407499
     0.333374928  0.833240877  0.833308527
     0.499988977  0.083327828  0.333436751
     0.499979091  0.083336159  0.833353947
     0.499984372  0.333428205  0.333296495
     0.499832299  0.333062781  0.834602584
     0.500175915  0.583838682  0.331738312
     0.500153297  0.583111879  0.832788135
     0.500018630  0.833217453  0.333406204
     0.500026442  0.833283200  0.833281909
     0.666634784  0.083374758  0.333381821
     0.666662548  0.083362704  0.833322514
     0.666545982  0.333532565  0.333330602
     0.666563617  0.333484019  0.833187893
     0.666804292  0.583396449  0.333054275
     0.667274386  0.583651099  0.834478415
     0.666678398  0.833315102  0.333347777
     0.666728122  0.833364724  0.833325889
     0.833283967  0.083398727  0.333344667
     0.833305363  0.083388138  0.833312191
     0.833235032  0.333417478  0.333391417
     0.833282894  0.333383488  0.833238858
     0.833416890  0.583349723  0.333342570
     0.833566811  0.583397947  0.833460440
     0.833355650  0.833369912  0.333377676
     0.833431109  0.833440598  0.833391475
     0.083358945  0.208374129  0.333377325
     0.083309108  0.208319802  0.833334190
     0.083412088  0.458314085  0.333412400
     0.083321086  0.458304474  0.833390297
     0.083393841  0.708314383  0.333489493
     0.083427986  0.708325646  0.833418636
     0.083375620  0.958344263  0.333362595
     0.083369549  0.958348138  0.833352826
     0.250027777  0.208392719  0.333418755
     0.249941504  0.208276927  0.833389697
     0.250187896  0.458328953  0.333414377
     0.249929771  0.458236365  0.833451890
     0.250091614  0.708249910  0.333459391
     0.250090965  0.708273247  0.833411391
     0.250033468  0.958291125  0.333400222
     0.250011312  0.958279465  0.833371960
     0.416648099  0.208388781  0.333441066
     0.416537491  0.208273081  0.833456491
     0.416329717  0.458154546  0.332045611
     0.416522649  0.458237429  0.833505091
     0.416774220  0.708133307  0.333358453
     0.416752880  0.708169199  0.833250299
     0.416660582  0.958271897  0.333413470
     0.416656622  0.958279688  0.833338208
     0.583320893  0.208423235  0.333415428
     0.583327751  0.208392416  0.833358980
     0.583933794  0.458212887  0.331742158
     0.583195367  0.458544482  0.832754709
     0.583372841  0.708264422  0.333205488
     0.583435384  0.708306374  0.833289101
     0.583335157  0.958301574  0.333401796
     0.583354189  0.958330255  0.833334866
     0.749927787  0.208447381  0.333409269
     0.749941024  0.208417144  0.833322846
     0.749951700  0.458390085  0.333203915
     0.749986730  0.458440244  0.833290522
     0.750063034  0.708372685  0.333368604
     0.750197878  0.708515692  0.833468382
     0.749979476  0.958360787  0.333384858
     0.750023407  0.958378841  0.833369851
     0.916614993  0.208390829  0.333373000
     0.916621817  0.208369893  0.833320763
     0.916670109  0.458338990  0.333365851
     0.916654667  0.458354519  0.833345096
     0.916717948  0.708355881  0.333453516
     0.916763286  0.708392751  0.833423124
     0.916657591  0.958383333  0.333366688
     0.916684572  0.958398623  0.833357118
     0.999991039  0.166698958  0.166690743
     0.999953391  0.166702494  0.666635997
     0.000019952  0.416661199  0.166703374
     0.999930367  0.416670861  0.666675595
     0.000044866  0.666681684  0.166786951
     0.000148383  0.666705844  0.666707200
     0.000020358  0.916698954  0.166710942
     0.000047880  0.916721676  0.666661796
     0.166669557  0.166682660  0.166714470
     0.166607467  0.166619577  0.666666246
     0.166683852  0.416663434  0.166729696
     0.166532363  0.416609940  0.666715708
     0.166644752  0.666677627  0.166923736
     0.166775355  0.666600683  0.666710729
     0.166688171  0.916662057  0.166721162
     0.166671482  0.916651914  0.666662991
     0.333332846  0.166654526  0.166761162
     0.333080590  0.166392775  0.666667470
     0.333205880  0.416589971  0.166377918
     0.333270324  0.416621425  0.666863116
     0.333361323  0.666649821  0.166684414
     0.333471055  0.666714683  0.666574189
     0.333343932  0.916622208  0.166728256
     0.333370103  0.916559049  0.666673815
     0.499991009  0.166619542  0.166835971
     0.499945718  0.166700343  0.666668951
     0.500021830  0.416610749  0.166187403
     0.500045850  0.666823914  0.166205582
     0.500365454  0.665861705  0.666751365
     0.499994423  0.916633776  0.166703766
     0.500010141  0.916587051  0.666657212
     0.666643862  0.166696800  0.166712769
     0.666676208  0.166666876  0.666647016
     0.666855678  0.416622316  0.166184571
     0.666003314  0.417359043  0.666745175
     0.666745730  0.666728774  0.166569787
     0.667382621  0.667615199  0.666513558
     0.666660714  0.916676974  0.166706183
     0.666680777  0.916681898  0.666679957
     0.833307555  0.166711322  0.166693313
     0.833256847  0.166755317  0.666656318
     0.833361906  0.416683890  0.166617056
     0.833205256  0.416773945  0.666649049
     0.833453240  0.666727978  0.166842439
     0.833651798  0.666842133  0.666673591
     0.833345480  0.916707075  0.166714259
     0.833421556  0.916802761  0.666673539
     0.083354401  0.041687185  0.166685570
     0.083330609  0.041681529  0.666638307
     0.083347502  0.291681155  0.166709769
     0.083276553  0.291645161  0.666642333
     0.083367652  0.541655901  0.166769512
     0.083125768  0.541606019  0.666678214
     0.083369699  0.791680327  0.166752556
     0.083406713  0.791670394  0.666694660
     0.250010140  0.041647161  0.166684787
     0.249940267  0.041542782  0.666632625
     0.250006249  0.291674578  0.166691679
     0.249887895  0.291560693  0.666675472
     0.249993291  0.541654807  0.166725503
     0.249045053  0.541290847  0.666595297
     0.250033478  0.791634954  0.166717819
     0.250033169  0.791667299  0.666636545
     0.416652878  0.041627233  0.166738661
     0.416648554  0.041612176  0.666663399
     0.416644897  0.291648987  0.166722135
     0.415809735  0.291065408  0.666579463
     0.416630901  0.541699012  0.166192020
     0.416675223  0.791621682  0.166670899
     0.416723365  0.791424869  0.666653156
     0.583328985  0.041649455  0.166724941
     0.583320174  0.041666332  0.666655427
     0.583339273  0.291686961  0.166640117
     0.583445439  0.291709116  0.666537078
     0.583473015  0.541737092  0.166077626
     0.583362451  0.791668633  0.166614224
     0.583394927  0.791562577  0.666654998
     0.749979705  0.041690087  0.166663287
     0.749999927  0.041689328  0.666619628
     0.749976784  0.291713800  0.166628701
     0.749798535  0.291839508  0.666620261
     0.750098666  0.541697519  0.166557564
     0.751215787  0.541762973  0.666494078
     0.750045531  0.791706653  0.166673203
     0.750234827  0.792004555  0.666652707
     0.916652089  0.041708181  0.166680359
     0.916653218  0.041740394  0.666642676
     0.916637513  0.291691259  0.166689896
     0.916591498  0.291714578  0.666632233
     0.916716076  0.541673049  0.166718774
     0.916964813  0.541685809  0.666650413
     0.916706471  0.791704613  0.166749898
     0.916778669  0.791768331  0.666697361
     0.000008369  0.000031664  0.125014461
     0.000007858  0.000052937  0.624977695
     0.999989202  0.250025886  0.125009813
     0.999941636  0.250037578  0.624982331
     0.000033707  0.500008481  0.125043656
     0.000012100  0.500052108  0.625053213
     0.000035620  0.750026549  0.125074825
     0.000090551  0.750043068  0.625056818
     0.166672170  0.999993229  0.125012891
     0.166639598  0.999946536  0.624984292
     0.166664711  0.250007185  0.125015649
     0.166621065  0.249984454  0.625025925
     0.166654008  0.500003137  0.125035409
     0.166182832  0.500006340  0.625149456
     0.166669854  0.750001969  0.125101474
     0.166716899  0.749957932  0.625058056
     0.333342760  0.999952934  0.125035622
     0.333347278  0.999895567  0.625004552
     0.333332515  0.249971546  0.125021233
     0.333084437  0.249549255  0.625141618
     0.333258366  0.499977719  0.124798208
     0.333696403  0.500163617  0.626086585
     0.333355881  0.749972002  0.124975223
     0.333305858  0.749871755  0.625099403
     0.499989257  0.999965682  0.125035229
     0.499993702  0.999941129  0.625014577
     0.499987330  0.249892335  0.125172602
     0.499832771  0.250077237  0.625065210
     0.500035100  0.500013973  0.124555563
     0.500023310  0.750047692  0.124741830
     0.500026344  0.749451431  0.625112087
     0.666647031  0.999999452  0.125008689
     0.666638851  0.000000807  0.624995660
     0.666643785  0.250023962  0.124945021
     0.666519640  0.250021464  0.625082040
     0.666780709  0.500017213  0.124609013
     0.667829815  0.500910917  0.625589462
     0.666718339  0.750043220  0.124919558
     0.667138340  0.750400870  0.625071140
     0.833336743  0.000033791  0.125000781
     0.833368068  0.000072645  0.624984899
     0.833318857  0.250037964  0.124982189
     0.833203131  0.250146669  0.624998842
     0.833406275  0.500031221  0.124940308
     0.833880906  0.500189016  0.625055586
     0.833418628  0.750057371  0.125060035
     0.833525509  0.750165461  0.625026307
     0.083329370  0.125020250  0.125017192
     0.083296150  0.125007872  0.624986753
     0.083339043  0.375010161  0.125018192
     0.083282445  0.374990758  0.625051376
     0.083336192  0.625018168  0.125140464
     0.083398059  0.624993265  0.625082761
     0.083349260  0.875014514  0.125052807
     0.083366918  0.875000711  0.625014430
     0.250004137  0.124985645  0.125034145
     0.249909827  0.124821589  0.625020994
     0.249932836  0.374967734  0.124839270
     0.250108931  0.375046451  0.625245567
     0.249885913  0.625052789  0.125227885
     0.250072488  0.624809139  0.625104761
     0.250012122  0.874970008  0.125030732
     0.249994505  0.874952868  0.625023073
     0.416668258  0.124950151  0.125094005
     0.416620925  0.124936015  0.625041961
     0.416607294  0.374927224  0.124774956
     0.417014868  0.375159286  0.626099146
     0.416695551  0.625048853  0.124659596
     0.417186019  0.622939418  0.625732410
     0.416674977  0.874954909  0.125011364
     0.416729397  0.874798046  0.625030939
     0.583313489  0.124976235  0.125064132
     0.583275931  0.125014003  0.625038674
     0.583392256  0.374989612  0.124626233
     0.581483697  0.376406106  0.625743219
     0.583397173  0.625093522  0.124587034
     0.584820731  0.625486153  0.625601723
     0.583337513  0.874995166  0.124983307
     0.583320062  0.874894582  0.625026776
     0.749973375  0.125029071  0.125004102
     0.749945254  0.125022898  0.625006695
     0.750085157  0.375003808  0.124695165
     0.749427299  0.375321008  0.625092241
     0.750198699  0.625108092  0.125099077
     0.750528762  0.625291869  0.625003471
     0.750022338  0.875037631  0.125016762
     0.750143960  0.875163311  0.625027741
     0.916657656  0.125039302  0.125009505
     0.916621454  0.125080008  0.624985445
     0.916691401  0.375020137  0.124974226
     0.916541709  0.375056947  0.625023898
     0.916756621  0.625042886  0.125112174
     0.916904877  0.625090143  0.625048619
     0.916703118  0.875038570  0.125046435
     0.916753559  0.875086654  0.625021307
     0.999988960  0.083392244  0.458324445
     0.999994452  0.083357344  0.958339961
     0.999975804  0.333400343  0.458362791
     0.999989089  0.333336753  0.958320576
     0.000100290  0.583343830  0.458387327
     0.000042789  0.583370195  0.958445218
     0.000055954  0.833356118  0.458374413
     0.000043259  0.833367840  0.958385337
     0.166712416  0.083362113  0.458311882
     0.166659246  0.083305988  0.958342734
     0.166848507  0.333440966  0.458402851
     0.166615364  0.333297623  0.958282577
     0.166878969  0.583258998  0.458436871
     0.166595005  0.583347179  0.958502245
     0.166750196  0.833250052  0.458376870
     0.166683504  0.833325262  0.958374266
     0.333368436  0.083321632  0.458365874
     0.333317332  0.083257411  0.958374495
     0.333828629  0.333977171  0.458518035
     0.333256671  0.333254790  0.958309104
     0.333701348  0.583049494  0.458534433
     0.332931551  0.583453129  0.958839074
     0.333503032  0.833019216  0.458370861
     0.333352955  0.833282493  0.958307066
     0.499983694  0.083342722  0.458405393
     0.499983750  0.083299049  0.958370729
     0.499908908  0.333703181  0.458553638
     0.499926046  0.332937713  0.958799880
     0.500260219  0.581519506  0.456303926
     0.499990726  0.583272239  0.957850557
     0.500033236  0.833040617  0.458404012
     0.500020040  0.833317469  0.958248481
     0.666596303  0.083397021  0.458361339
     0.666651260  0.083328365  0.958333757
     0.666020450  0.334106583  0.458513832
     0.666635434  0.333379534  0.958122675
     0.666769795  0.583383856  0.458211131
     0.667143238  0.583581067  0.958705126
     0.666621917  0.833193298  0.458302751
     0.666715036  0.833363692  0.958307128
     0.833262110  0.083440228  0.458319394
     0.833324608  0.083366994  0.958318373
     0.833076626  0.333518216  0.458384723
     0.833340658  0.333361497  0.958201874
     0.833401373  0.583383766  0.458314342
     0.833513724  0.583414576  0.958449972
     0.833382361  0.833367780  0.458353826
     0.833422918  0.833402450  0.958386304
     0.083368619  0.208397252  0.458339065
     0.083320409  0.208328187  0.958341069
     0.083549898  0.458333494  0.458348762
     0.083326253  0.458333242  0.958377261
     0.083426064  0.708301997  0.458432716
     0.083376557  0.708346367  0.958427957
     0.083375367  0.958345044  0.458337959
     0.083357575  0.958348623  0.958359653
     0.250115562  0.208505797  0.458356934
     0.249972770  0.208281461  0.958380341
     0.250900863  0.458373804  0.458517167
     0.249932736  0.458299749  0.958350655
     0.250166274  0.708120941  0.458446343
     0.249980819  0.708326244  0.958443522
     0.250062372  0.958237206  0.458365973
     0.250001325  0.958289994  0.958378913
     0.416693635  0.208471865  0.458421531
     0.416617454  0.208229319  0.958461832
     0.418673228  0.459317644  0.456829044
     0.416527814  0.458242200  0.958163809
     0.417103657  0.707455170  0.458531970
     0.416686004  0.708280942  0.958186210
     0.416679651  0.958210314  0.458383585
     0.416655651  0.958290100  0.958346097
     0.583225559  0.208529552  0.458413078
     0.583321742  0.208298184  0.958393286
     0.581659083  0.459420313  0.456315419
     0.583283010  0.458348375  0.957817162
     0.583150052  0.707740481  0.458277107
     0.583402425  0.708354459  0.958198497
     0.583324569  0.958257315  0.458374425
     0.583345700  0.958325304  0.958334002
     0.749795581  0.208614774  0.458370360
     0.749971853  0.208372366  0.958316405
     0.749329733  0.458489684  0.458259661
[...]
 196      -0.003     0.002     0.004       1.207
 197      -0.004    -0.001     0.016       0.156
 198      -0.001    -0.000     0.001       0.709
 199       0.004     0.000     0.007      -0.625
 200      -0.001     0.001     0.002       1.055
 201      -0.010     0.001    -0.013      -0.826
 202      -0.006     0.002     0.007       1.075
 203      -0.028     0.007    -0.040      -0.880
 204       0.010     0.002     0.020      -0.423
 205       0.086     0.085     0.168      -0.006
 206      -0.002    -0.000     0.002       0.674
 207       0.006     0.002     0.027      -0.156
 208       0.004     0.002    -0.005       0.349
 209       0.099     0.093     0.172      -0.035
 210      -0.012    -0.010     0.014       0.115
 211      -0.164     0.044     0.211       0.980
 212       0.020     0.015     0.037      -0.151
 213       2.266     2.249     3.162      -0.005
 214       0.004     0.001    -0.004       0.805
 215       0.006     0.006     0.024      -0.025
 216       0.011     0.001     0.021      -0.490
 217       0.083     0.082     0.164      -0.006
 218      -0.011    -0.008     0.024       0.115
 219      -0.003     0.002     0.018       0.264
 220       0.325     0.275     0.491      -0.102
 221      -0.004     0.001     0.005       1.205
 222      -0.006    -0.006     0.014       0.061
 223       0.003     0.002    -0.004       0.342
 224       0.166     0.159     0.260      -0.025
 225       0.003    -0.003     0.019      -0.336
 226       0.302     0.255     0.470      -0.098
 227      -0.004     0.002     0.007       0.796
 228      -0.042     0.003    -0.048      -0.946
 229      -0.003    -0.000     0.003       0.810
 230      -0.002    -0.000     0.010       0.177
 231      -0.001     0.001     0.002       0.913
 232       0.002    -0.001     0.014      -0.238
 233       0.003     0.003    -0.007       0.012
 234      -0.012    -0.010     0.021       0.085
 235       0.003     0.001    -0.004       0.353
 236      -0.006    -0.004     0.012       0.218
 237      -0.001    -0.000     0.002       0.483
 238      -0.004     0.000     0.005       0.727
 239      -0.001    -0.000     0.002       0.271
 240       0.009     0.003     0.010      -0.622
 241       0.003     0.002    -0.003       0.428
 242      -0.009     0.006    -0.011      -1.298
 243       0.004     0.003    -0.007       0.231
 244       0.090     0.083     0.170      -0.043
 245      -0.002     0.001     0.003       0.915
 246       0.002    -0.001     0.017      -0.188
 247      -0.003    -0.000     0.003       0.832
 248       0.025     0.025     0.041      -0.020
 249      -0.004     0.000     0.007       0.650
 250      -0.027     0.005    -0.040      -0.796
 251      -0.006    -0.000     0.019       0.284
 252       1.746     1.718     2.495      -0.011
 253       0.003     0.002    -0.004       0.330
 254       0.172     0.165     0.268      -0.027
 255      -0.004     0.002     0.006       1.026
 256      -0.003    -0.002     0.020       0.051
 257      -0.005    -0.001     0.019       0.221
 258       1.727     1.700     2.450      -0.011
 259      -0.011    -0.008     0.025       0.126
 260      -0.005     0.004     0.006       1.354
 261      -0.008    -0.006     0.037       0.062
 262      -0.004     0.002     0.005       1.046
 263      -0.003    -0.003     0.018       0.032
 264       0.020     0.014     0.036      -0.156
 265       2.229     2.213     3.097      -0.005
 266      -0.010    -0.007     0.018       0.160
 267       0.002     0.001    -0.006       0.192
 268      -0.005    -0.003     0.022       0.098
 269      -0.002    -0.001     0.002       0.627
 270       0.025     0.023     0.042      -0.049
 271      -0.004     0.002     0.006       1.088
 272      -0.010    -0.007     0.035       0.084
 273      -0.006     0.003     0.007       1.278
 274      -0.045     0.008    -0.049      -1.096
 275      -0.002     0.001     0.002       1.291
 276      -0.005    -0.002     0.010       0.288
 277      -0.001     0.000     0.002       0.656
 278       0.004    -0.000     0.006      -0.658
 279       0.003     0.001    -0.003       0.616
 280      -0.003    -0.001     0.013       0.147
 281      -0.005     0.003     0.006       1.367
 282      -0.007    -0.006     0.026       0.057
 283      -0.000    -0.000     0.002       0.159
 284      -0.004     0.002     0.005       1.193
 285      -0.001     0.000     0.001       0.814
 286      -0.003     0.002     0.004       1.278
 287       0.002    -0.000    -0.003       0.901
 288      -0.006    -0.002     0.006       0.552
 289      -0.005     0.003     0.006       1.235
 290       0.013     0.012     0.058      -0.021
 291      -0.002     0.000     0.002       0.891
 292       0.005    -0.004    -0.007       1.247
 293      -0.002    -0.001     0.002       0.394
 294      -0.009     0.008    -0.012      -1.312
 295       0.003    -0.002     0.004      -1.089
 296      -0.003    -0.000     0.018       0.187
 297       0.008    -0.000    -0.009       0.864
 298       0.175     0.173     0.317      -0.008
 299       0.002    -0.001    -0.005       0.538
 300      -0.017     0.004    -0.023      -0.954
 301       0.004    -0.000    -0.004       0.941
 302      -0.006    -0.006     0.009       0.026
 303      -0.007    -0.002     0.007       0.753
 304       0.193     0.189     0.320      -0.013
 305      -0.009    -0.006     0.023       0.148
 306      -1.171    -0.941    -1.231      -0.187
 307       0.006    -0.001    -0.008       0.879
 308       0.567     0.565     0.802      -0.002
 309       0.004    -0.000    -0.006       0.826
 310      -0.008    -0.006     0.010       0.123
 311       0.037     0.030     0.069      -0.092
 312      -0.135    -0.042    -0.140      -0.667
 313      -0.017    -0.014     0.019       0.126
 314       0.007     0.000    -0.008       0.899
 315      -0.062    -0.020    -0.069      -0.612
 316      -0.003    -0.001     0.003       0.810
 317      -0.006     0.005    -0.008      -1.422
 318       0.006    -0.001    -0.007       1.057
 319       0.554     0.554     0.784      -0.000
 320      -0.004     0.002     0.020       0.323
 321       0.267     0.209     0.446      -0.131
 322       0.003     0.001    -0.004       0.663
 323       0.025     0.021     0.054      -0.068
 324      -0.001    -0.001     0.002       0.259
 325       0.009     0.005     0.016      -0.269
 326       0.003     0.001    -0.003       0.562
 327      -0.009    -0.006     0.011       0.310
 328       0.004     0.002    -0.007       0.284
 329       0.003     0.002     0.051      -0.022
 330       0.002    -0.000    -0.002       0.820
 331      -0.006    -0.002     0.006       0.588
 332      -0.001    -0.000     0.001       0.088
 333      -0.004     0.000     0.005       0.888
 334       0.006    -0.002     0.008      -0.956
 335      -0.002    -0.001     0.023       0.052
 336       0.002    -0.000    -0.007       0.345
 337      -0.019     0.007    -0.022      -1.179
 338      -0.001    -0.001     0.001       0.242
 339       0.003    -0.003     0.007      -0.758
 340      -0.002     0.001     0.004       1.008
 341       0.035     0.032     0.061      -0.056
 342       0.008    -0.004    -0.009       1.302
 343      -0.089    -0.057    -0.109      -0.294
 344       0.038     0.032     0.071      -0.078
 345      -0.139    -0.044    -0.144      -0.660
 346       0.003    -0.001     0.005      -0.750
 347       0.099     0.098     0.143      -0.008
 348       0.003    -0.000    -0.007       0.379
 349      -0.021     0.006    -0.022      -1.192
 350      -0.009    -0.006     0.023       0.096
 351      -1.143    -0.921    -1.201      -0.185
 352      -0.013     0.012    -0.016      -1.595
 353      -0.407     0.138    -0.435      -1.253
 354       0.004     0.001    -0.005       0.580
 355      -0.011    -0.010     0.012       0.055
 356       0.003     0.000    -0.006       0.420
 357      -0.017     0.008    -0.020      -1.237
 358       0.012    -0.012    -0.016       1.580
 359      -0.380     0.161    -0.407      -1.330
 360      -0.003     0.001     0.020       0.186
 361       0.284     0.218     0.437      -0.150
 362       0.004     0.001    -0.004       0.719
 363      -0.008     0.007    -0.009      -1.679
 364       0.002    -0.000     0.004      -0.571
 365       0.095     0.092     0.134      -0.025
 366       0.007     0.001    -0.008       0.811
 367      -0.061    -0.018    -0.067      -0.647
 368       0.005     0.001    -0.006       0.638
 369       0.014    -0.013    -0.020       1.305
 370      -0.002    -0.001     0.002       0.501
 371       0.004     0.001     0.011      -0.261
 372      -0.001    -0.000     0.001       0.479
 373       0.004    -0.000    -0.005       0.775
 374      -0.004     0.003     0.006       1.173
 375      -0.005    -0.005     0.015       0.019
 376       0.003     0.001    -0.005       0.598
 377      -0.008    -0.007     0.010       0.117
 378       0.001     0.000    -0.001       0.292
 379       0.004    -0.001     0.005      -1.086
 380       0.002     0.001    -0.003       0.127
 381       0.001     0.001    -0.002       0.122
 382      -0.005    -0.002     0.008       0.392
 383      -0.004    -0.000     0.007       0.534
 384       0.008    -0.004    -0.009       1.433
 385       0.006    -0.003    -0.008       1.170
 386      -0.002     0.001     0.004       0.831
 387       0.002    -0.000    -0.002       1.034
 388      -0.004    -0.002     0.004       0.506
 389      -0.003    -0.002     0.003       0.397
 390      -0.010     0.009    -0.012      -1.606
 391      -0.008     0.006    -0.011      -1.289
 392      -0.018    -0.013     0.019       0.238
 393      -0.019     0.003    -0.024      -0.907
 394      -0.005    -0.003     0.006       0.322
 395      -0.004     0.004    -0.005      -1.599
 396      -0.007    -0.005     0.007       0.347
 397       0.006    -0.003    -0.006       1.379
 398       0.029    -0.025    -0.029       1.838
 399      -0.021     0.013    -0.022      -1.543
 400      -0.087     0.004    -0.099      -0.918
 401       0.222     0.217     0.365      -0.015
 402       0.008    -0.008    -0.012       1.389
 403      -0.002     0.002     0.014       0.283
 404      -0.006    -0.002     0.012       0.353
 405       0.007    -0.004    -0.008       1.304
 406      -0.087     0.003    -0.098      -0.908
 407       0.212     0.207     0.351      -0.016
 408       0.066     0.012     0.161      -0.332
 409      -0.031    -0.025     0.033       0.172
 410       0.002    -0.001     0.023      -0.108
 411      -0.008    -0.004     0.008       0.537
 412      -0.005    -0.004     0.007       0.137
 413       0.005    -0.003    -0.006       1.470
 414      -0.058    -0.018    -0.064      -0.625
 415      -0.014    -0.011     0.021       0.151
 416      -0.018    -0.016     0.028       0.061
 417      -0.013    -0.010     0.017       0.137
 418      -0.004    -0.003     0.009       0.114
 419       0.005    -0.003    -0.005       1.634
 420      -0.003    -0.001     0.003       0.569
 421      -0.001    -0.000     0.004       0.350
 422      -0.001     0.001     0.022       0.073
 423      -0.007    -0.003     0.008       0.547
 424      -0.008    -0.005     0.011       0.293
 425      -0.007    -0.002     0.008       0.624
 426      -0.003    -0.000     0.003       0.933
 427       0.002    -0.000    -0.002       1.073
 428      -0.004    -0.002     0.005       0.434
 429      -0.003    -0.002     0.004       0.325
 430       0.010    -0.007    -0.013       1.348
 431      -0.005     0.001     0.014       0.395
 432      -0.004    -0.003     0.010       0.122
 433       0.005    -0.004    -0.006       1.546
 434      -0.003    -0.000     0.003       0.836
 435       0.002    -0.001    -0.002       1.222
 436       0.008    -0.008    -0.010       1.572
 437       0.001    -0.001     0.014      -0.108
 438      -0.029    -0.025     0.030       0.162
 439      -0.021     0.013    -0.022      -1.532
 440      -0.017    -0.013     0.017       0.208
 441      -0.017     0.005    -0.021      -1.021
 442       0.005    -0.003    -0.005       1.646
 443      -0.002    -0.000     0.006       0.340
 444      -0.017    -0.013     0.019       0.198
 445      -0.018     0.003    -0.022      -0.982
 446      -0.104     0.026    -0.122      -1.060
 447      -0.087    -0.051    -0.108      -0.333
 448      -0.060    -0.019    -0.067      -0.611
 449      -0.015    -0.011     0.021       0.160
 450      -0.003    -0.000     0.011       0.262
 451      -0.006    -0.002     0.007       0.578
 452      -0.017    -0.012     0.018       0.235
 453      -0.017     0.004    -0.021      -0.981
 454       0.066     0.012     0.162      -0.333
 455      -0.031    -0.026     0.032       0.162
 456      -0.006    -0.003     0.034       0.081
 457       0.012    -0.009    -0.013       1.685
 458      -0.001     0.000     0.010       0.188
 459       0.005    -0.002    -0.005       1.427
 460      -0.008     0.007    -0.010      -1.486
 461       0.001    -0.000     0.013      -0.109
 462      -0.005    -0.003     0.037       0.064
 463       0.013    -0.008    -0.015       1.423
 464      -0.005    -0.004     0.010       0.135
 465      -0.005    -0.003     0.006       0.242
 466      -0.003    -0.001     0.004       0.488
 467      -0.002    -0.001     0.003       0.427
 468      -0.003    -0.001     0.005       0.407
 469      -0.003    -0.001     0.003       0.511
 470      -0.007    -0.003     0.012       0.391
 471      -0.007    -0.001     0.009       0.691
 472      -0.003    -0.001     0.006       0.369
 473       0.004    -0.001    -0.004       1.326
 474       0.002     0.000    -0.003       0.625
 475       0.002     0.000    -0.002       0.777
 476       0.001    -0.000    -0.002       1.202
 477       0.003    -0.000    -0.004       0.862
 478      -0.006     0.001     0.006       1.194
 479      -0.008    -0.005     0.012       0.213
 480       0.004    -0.000    -0.004       0.914
 481      -0.007    -0.005     0.008       0.240
 482       0.001    -0.000    -0.002       1.018
 483       0.002    -0.000    -0.004       0.616
 484      -0.002    -0.001     0.003       0.460
 485      -0.006    -0.004     0.007       0.306
 486      -0.005     0.001     0.014       0.457
 487      -0.020     0.014    -0.024      -1.457
 488       0.004    -0.001     0.016      -0.364
 489      -0.016    -0.016     0.018       0.012
 490      -0.002    -0.001     0.003       0.450
 491      -0.004     0.004    -0.006      -1.290
 492      -0.005    -0.000     0.007       0.636
 493      -0.020     0.004    -0.023      -1.063
 494      -0.016    -0.014     0.019       0.067
 495      -0.135    -0.049    -0.167      -0.517
 496       0.012    -0.010    -0.015       1.458
 497      -0.129    -0.035    -0.137      -0.688
 498       0.004    -0.001    -0.005       0.964
 499      -0.007    -0.006     0.009       0.155
 500       0.004    -0.004     0.014      -0.544
 501      -0.014    -0.012     0.022       0.089
 502       0.023    -0.021    -0.024       1.855
 503      -1.057    -0.827    -1.120      -0.206
 504       0.007     0.001     0.033      -0.170
 505      -0.087     0.005    -0.094      -0.980
 506      -0.004     0.001     0.007       0.749
 507      -0.006    -0.005     0.011       0.124
 508      -0.005    -0.001     0.006       0.669
 509      -0.018     0.004    -0.022      -1.022
 510       0.007    -0.000     0.032      -0.216
 511      -0.088     0.004    -0.094      -0.974
 512      -0.006    -0.002     0.010       0.374
 513      -0.019     0.017    -0.019      -1.844
 514      -0.003    -0.001     0.004       0.522
 515      -0.004    -0.003     0.007       0.210
 516       0.002    -0.001    -0.002       1.563
 517      -0.005    -0.003     0.006       0.315
 518      -0.006     0.001     0.009       0.803
 519       0.014    -0.012    -0.014       1.826
 520      -0.004    -0.000     0.004       0.915
 521      -0.007    -0.005     0.009       0.211
 522      -0.002    -0.000     0.002       0.691
 523       0.003     0.000    -0.004       0.710
 524      -0.001    -0.000     0.002       0.668
 525       0.003     0.000    -0.003       0.751
 526       0.004    -0.000    -0.004       0.974
 527       0.007    -0.006    -0.009       1.589
 528      -0.007     0.001     0.008       0.904
 529      -0.021     0.006    -0.025      -1.065
 530      -0.002    -0.001     0.002       0.426
 531       0.006    -0.004    -0.006       1.543
 532      -0.003    -0.001     0.004       0.686
 533      -0.006    -0.004     0.006       0.213
 534      -0.005    -0.001     0.012       0.313
 535      -0.018     0.014    -0.022      -1.487
 536      -0.014    -0.009     0.015       0.329
 537      -0.153    -0.059    -0.157      -0.602
 538      -0.005    -0.001     0.006       0.690
 539      -0.016     0.006    -0.020      -1.101
 540       0.005    -0.000    -0.005       1.025
 541      -0.008    -0.006     0.010       0.149
 542      -0.013    -0.010     0.015       0.254
 543      -0.150    -0.059    -0.155      -0.586
 544       0.023    -0.021    -0.024       1.858
 545      -1.082    -0.847    -1.146      -0.205
 546       0.005    -0.003    -0.009       0.863
 547      -0.016    -0.013     0.021       0.112
 548      -0.004     0.000     0.005       0.863
 549      -0.005    -0.004     0.010       0.066
 550       0.012    -0.010    -0.015       1.454
 551      -0.126    -0.034    -0.134      -0.691
 552      -0.017     0.015    -0.020      -1.670
 553      -0.089     0.033    -0.107      -1.142
 554      -0.005    -0.000     0.008       0.553
 555       0.012    -0.012    -0.013       1.926
 556      -0.002    -0.001     0.003       0.380
 557       0.004    -0.004    -0.005       1.524
 558       0.005    -0.004    -0.008       1.074
 559      -0.013    -0.012     0.020       0.046
 560      -0.007    -0.001     0.011       0.627
 561       0.019    -0.018    -0.020       1.823
 562      -0.002    -0.001     0.003       0.319
 563      -0.005    -0.003     0.007       0.315
 564       0.001    -0.000    -0.002       0.950
 565       0.003     0.000    -0.003       0.680
 566      -0.003     0.001     0.005       0.722
 567      -0.006    -0.004     0.008       0.204
 568       0.006     0.001    -0.006       0.832
 569      -0.010    -0.007     0.011       0.261
 570       0.001    -0.000    -0.002       1.154
 571       0.003    -0.000    -0.004       0.795
 572      -0.637    -0.560    -0.756      -0.102
 573       0.241     0.036    -0.397       0.517
 574      14.769    14.724    25.627      -0.002
 575      15.043    14.998    26.239      -0.002
 576      -0.624    -0.532    -0.738      -0.126
 ---------------------------------------------------------------------



--------------------------------------------------------------------------------------------------------


     LOOP+:  cpu time 1243.3656: real time 1247.0908
    4ORBIT:  cpu time    0.0000: real time    0.0000

 total amount of memory used by VASP MPI-rank0   238700. kBytes
=======================================================================

   base      :      30000. kBytes
   nonlr-proj:       9223. kBytes
   fftplans  :      15014. kBytes
   grid      :      46644. kBytes
   one-center:        294. kBytes
   wavefun   :     137525. kBytes
 
  
  
 General timing and accounting informations for this job:
 ========================================================
  
                  Total CPU time used (sec):     1272.188
                            User time (sec):     1271.282
                          System time (sec):        0.907
                         Elapsed time (sec):     1276.578
  
                   Maximum memory used (kb):      437440.
                   Average memory used (kb):          N/A
  
                          Minor page faults:       172595
                          Major page faults:            0
                 Voluntary context switches:        13204
