 vasp.6.2.0 18Jan21 (build Apr 30 2021 19:00:08) gamma-only                     
  
 executed on             LinuxIFC date 2022.12.30  16:22:17
 running on   24 total cores
 distrk:  each k-point on   24 cores,    1 groups
 distr:  one band on NCORE=   6 cores,    4 groups


--------------------------------------------------------------------------------------------------------


 INCAR:
   SYSTEM = Diamond
   PREC = Normal
   ISTART = 0
   ICHARG = 11
   ISPIN = 2
   MAGMOM = 572*0.0 1*2.0 2*2.0 1*3
   NPAR = 4
   NELECT = 2303
   LHYPERFINE = T
   LEFG = T
   ENCUT = 700
   NELM = 1000
   NELMIN = 4
   EDIFF = 1E-06
   LREAL = Auto
   ALGO = Normal
   EDIFFG = -1E-02
   NSW = 0
   IBRION = 2
   ISIF = 2
   ISYM = 2
   POTIM = 0.5
   ISMEAR = 0
   SIGMA = 0.05
   NEDOS = 1000
   LWAVE = F
   LCHARG = F
   LVHAR = F
   LELF = F

 POTCAR:    PAW_PBE C 08Apr2002                   
 POTCAR:    PAW_PBE H 15Jun2001                   
 POTCAR:    PAW_PBE C 08Apr2002                   
 POTCAR:    PAW_PBE N 08Apr2002                   
 POTCAR:    PAW_PBE C 08Apr2002                   
   VRHFIN =C: s2p2                                                                                  
   LEXCH  = PE                                                                                      
   EATOM  =   147.1560 eV,   10.8157 Ry                                                             
                                                                                                    
   TITEL  = PAW_PBE C 08Apr2002                                                                     
   LULTRA =        F    use ultrasoft PP ?                                                          
   IUNSCR =        1    unscreen: 0-lin 1-nonlin 2-no                                               
   RPACOR =    1.200    partial core radius                                                         
   POMASS =   12.011; ZVAL   =    4.000    mass and valenz                                          
   RCORE  =    1.500    outmost cutoff radius                                                       
   RWIGS  =    1.630; RWIGS  =    0.863    wigner-seitz radius (au A)                               
   ENMAX  =  400.000; ENMIN  =  300.000 eV                                                          
   ICORE  =        2    local potential                                                             
   LCOR   =        T    correct aug charges                                                         
   LPAW   =        T    paw PP                                                                      
   EAUG   =  644.873                                                                                
   DEXC   =    0.000                                                                                
   RMAX   =    1.529    core radius for proj-oper                                                   
   RAUG   =    1.300    factor for augmentation sphere                                              
   RDEP   =    1.501    radius for radial grids                                                     
   RDEPT  =    1.300    core radius for aug-charge                                                  
                                                                                                    
   Atomic configuration                                                                             
    4 entries                                                                                       
     n  l   j            E        occ.                                                              
     1  0  0.50      -273.3789   2.0000                                                             
     2  0  0.50       -13.7508   2.0000                                                             
     2  1  0.50        -5.2854   2.0000                                                             
     3  2  1.50        -5.4423   0.0000                                                             
   Description                                                                                      
     l       E           TYP  RCUT    TYP  RCUT                                                     
     0    -13.7508458     23  1.200                                                                 
     0     -8.2022199     23  1.200                                                                 
     1     -5.2854383     23  1.500                                                                 
     1     34.0145650     23  1.500                                                                 
     2     -5.4423304      7  1.500                                                                 
  local pseudopotential read in
  partial core-charges read in
  partial kinetic energy density read in
  atomic valenz-charges read in
  non local Contribution for L=           0  read in
    real space projection operators read in
  non local Contribution for L=           0  read in
    real space projection operators read in
  non local Contribution for L=           1  read in
    real space projection operators read in
  non local Contribution for L=           1  read in
    real space projection operators read in
    PAW grid and wavefunctions read in
 
   number of l-projection  operators is LMAX  =           4
   number of lm-projection operators is LMMAX =           8
 
 POTCAR:    PAW_PBE H 15Jun2001                   
   VRHFIN =H: ultrasoft test                                                                        
   LEXCH  = PE                                                                                      
   EATOM  =    12.4884 eV,    0.9179 Ry                                                             
                                                                                                    
   TITEL  = PAW_PBE H 15Jun2001                                                                     
   LULTRA =        F    use ultrasoft PP ?                                                          
   IUNSCR =        0    unscreen: 0-lin 1-nonlin 2-no                                               
   RPACOR =    0.000    partial core radius                                                         
   POMASS =    1.000; ZVAL   =    1.000    mass and valenz                                          
   RCORE  =    1.100    outmost cutoff radius                                                       
   RWIGS  =    0.700; RWIGS  =    0.370    wigner-seitz radius (au A)                               
   ENMAX  =  250.000; ENMIN  =  200.000 eV                                                          
   RCLOC  =    0.701    cutoff for local pot                                                        
   LCOR   =        T    correct aug charges                                                         
   LPAW   =        T    paw PP                                                                      
   EAUG   =  400.000                                                                                
   RMAX   =    1.123    core radius for proj-oper                                                   
   RAUG   =    1.200    factor for augmentation sphere                                              
   RDEP   =    1.112    radius for radial grids                                                     
   RDEPT  =    0.926    core radius for aug-charge                                                  
                                                                                                    
   Atomic configuration                                                                             
    2 entries                                                                                       
     n  l   j            E        occ.                                                              
     1  0  0.50        -6.4927   1.0000                                                             
     2  1  0.50        -3.4015   0.0000                                                             
   Description                                                                                      
     l       E           TYP  RCUT    TYP  RCUT                                                     
     0     -6.4927494     23  1.100                                                                 
     0      6.8029130     23  1.100                                                                 
     1     -4.0817478     23  1.100                                                                 
  local pseudopotential read in
  atomic valenz-charges read in
  non local Contribution for L=           0  read in
    real space projection operators read in
  non local Contribution for L=           0  read in
    real space projection operators read in
  non local Contribution for L=           1  read in
    real space projection operators read in
    PAW grid and wavefunctions read in
 
   number of l-projection  operators is LMAX  =           3
   number of lm-projection operators is LMMAX =           5
 
 POTCAR:    PAW_PBE C 08Apr2002                   
   VRHFIN =C: s2p2                                                                                  
   LEXCH  = PE                                                                                      
   EATOM  =   147.1560 eV,   10.8157 Ry                                                             
                                                                                                    
   TITEL  = PAW_PBE C 08Apr2002                                                                     
   LULTRA =        F    use ultrasoft PP ?                                                          
   IUNSCR =        1    unscreen: 0-lin 1-nonlin 2-no                                               
   RPACOR =    1.200    partial core radius                                                         
   POMASS =   12.011; ZVAL   =    4.000    mass and valenz                                          
   RCORE  =    1.500    outmost cutoff radius                                                       
   RWIGS  =    1.630; RWIGS  =    0.863    wigner-seitz radius (au A)                               
   ENMAX  =  400.000; ENMIN  =  300.000 eV                                                          
   ICORE  =        2    local potential                                                             
   LCOR   =        T    correct aug charges                                                         
   LPAW   =        T    paw PP                                                                      
   EAUG   =  644.873                                                                                
   DEXC   =    0.000                                                                                
   RMAX   =    1.529    core radius for proj-oper                                                   
   RAUG   =    1.300    factor for augmentation sphere                                              
   RDEP   =    1.501    radius for radial grids                                                     
   RDEPT  =    1.300    core radius for aug-charge                                                  
                                                                                                    
   Atomic configuration                                                                             
    4 entries                                                                                       
     n  l   j            E        occ.                                                              
     1  0  0.50      -273.3789   2.0000                                                             
     2  0  0.50       -13.7508   2.0000                                                             
     2  1  0.50        -5.2854   2.0000                                                             
     3  2  1.50        -5.4423   0.0000                                                             
   Description                                                                                      
     l       E           TYP  RCUT    TYP  RCUT                                                     
     0    -13.7508458     23  1.200                                                                 
     0     -8.2022199     23  1.200                                                                 
     1     -5.2854383     23  1.500                                                                 
     1     34.0145650     23  1.500                                                                 
     2     -5.4423304      7  1.500                                                                 
  local pseudopotential read in
  partial core-charges read in
  partial kinetic energy density read in
  atomic valenz-charges read in
  non local Contribution for L=           0  read in
    real space projection operators read in
  non local Contribution for L=           0  read in
    real space projection operators read in
  non local Contribution for L=           1  read in
    real space projection operators read in
  non local Contribution for L=           1  read in
    real space projection operators read in
    PAW grid and wavefunctions read in
 
   number of l-projection  operators is LMAX  =           4
   number of lm-projection operators is LMMAX =           8
 
 POTCAR:    PAW_PBE N 08Apr2002                   
   VRHFIN =N: s2p3                                                                                  
   LEXCH  = PE                                                                                      
   EATOM  =   264.5486 eV,   19.4438 Ry                                                             
                                                                                                    
   TITEL  = PAW_PBE N 08Apr2002                                                                     
   LULTRA =        F    use ultrasoft PP ?                                                          
   IUNSCR =        1    unscreen: 0-lin 1-nonlin 2-no                                               
   RPACOR =    1.200    partial core radius                                                         
   POMASS =   14.001; ZVAL   =    5.000    mass and valenz                                          
   RCORE  =    1.500    outmost cutoff radius                                                       
   RWIGS  =    1.400; RWIGS  =    0.741    wigner-seitz radius (au A)                               
   ENMAX  =  400.000; ENMIN  =  300.000 eV                                                          
   ICORE  =        2    local potential                                                             
   LCOR   =        T    correct aug charges                                                         
   LPAW   =        T    paw PP                                                                      
   EAUG   =  627.112                                                                                
   DEXC   =    0.000                                                                                
   RMAX   =    1.529    core radius for proj-oper                                                   
   RAUG   =    1.300    factor for augmentation sphere                                              
   RDEP   =    1.514    radius for radial grids                                                     
   RDEPT  =    1.338    core radius for aug-charge                                                  
                                                                                                    
   Atomic configuration                                                                             
    4 entries                                                                                       
     n  l   j            E        occ.                                                              
     1  0  0.50      -384.7179   2.0000                                                             
     2  0  0.50       -18.5828   2.0000                                                             
     2  1  0.50        -7.0898   3.0000                                                             
     3  2  1.50        -6.8029   0.0000                                                             
   Description                                                                                      
     l       E           TYP  RCUT    TYP  RCUT                                                     
     0    -18.5828119     23  1.200                                                                 
     0    -13.5018863     23  1.200                                                                 
     1     -7.0897853     23  1.500                                                                 
     1      9.5240782     23  1.500                                                                 
     2     -6.8029130      7  1.500                                                                 
  local pseudopotential read in
  partial core-charges read in
  partial kinetic energy density read in
  atomic valenz-charges read in
  non local Contribution for L=           0  read in
    real space projection operators read in
  non local Contribution for L=           0  read in
    real space projection operators read in
  non local Contribution for L=           1  read in
    real space projection operators read in
  non local Contribution for L=           1  read in
    real space projection operators read in
    PAW grid and wavefunctions read in
 
   number of l-projection  operators is LMAX  =           4
   number of lm-projection operators is LMMAX =           8
 
 Optimization of the real space projectors (new method)

 maximal supplied QI-value         = 25.13
 optimisation between [QCUT,QGAM] = [ 13.32, 26.89] = [ 49.69,202.52] Ry 
 Optimized for a Real-space Cutoff    1.01 Angstroem

   l    n(q)    QCUT    max X(q) W(low)/X(q) W(high)/X(q)  e(spline) 
   0      8    13.321   115.676    0.29E-03    0.42E-03    0.11E-06
   0      8    13.321    87.132    0.29E-03    0.42E-03    0.11E-06
   1      8    13.321     4.429    0.39E-03    0.33E-03    0.98E-07
   1      8    13.321     2.733    0.30E-03    0.26E-03    0.97E-07
 Optimization of the real space projectors (new method)

 maximal supplied QI-value         = 34.20
 optimisation between [QCUT,QGAM] = [ 13.34, 27.02] = [ 49.83,204.46] Ry 
 Optimized for a Real-space Cutoff    0.93 Angstroem

   l    n(q)    QCUT    max X(q) W(low)/X(q) W(high)/X(q)  e(spline) 
   0      7    13.340    19.460    0.47E-03    0.72E-04    0.17E-06
   0      7    13.340    12.209    0.45E-03    0.63E-04    0.16E-06
   1      7    13.340     4.655    0.21E-03    0.61E-03    0.12E-06
 Optimization of the real space projectors (new method)

 maximal supplied QI-value         = 25.13
 optimisation between [QCUT,QGAM] = [ 13.32, 26.89] = [ 49.69,202.52] Ry 
 Optimized for a Real-space Cutoff    1.01 Angstroem

   l    n(q)    QCUT    max X(q) W(low)/X(q) W(high)/X(q)  e(spline) 
   0      8    13.321   115.676    0.29E-03    0.42E-03    0.11E-06
   0      8    13.321    87.132    0.29E-03    0.42E-03    0.11E-06
   1      8    13.321     4.429    0.39E-03    0.33E-03    0.98E-07
   1      8    13.321     2.733    0.30E-03    0.26E-03    0.97E-07
 Optimization of the real space projectors (new method)

 maximal supplied QI-value         = 25.13
 optimisation between [QCUT,QGAM] = [ 13.32, 26.89] = [ 49.69,202.52] Ry 
 Optimized for a Real-space Cutoff    1.01 Angstroem

   l    n(q)    QCUT    max X(q) W(low)/X(q) W(high)/X(q)  e(spline) 
   0      8    13.321    79.467    0.28E-03    0.38E-03    0.11E-06
   0      8    13.321    66.151    0.27E-03    0.38E-03    0.11E-06
   1      8    13.321    23.070    0.40E-03    0.78E-03    0.29E-06
   1      8    13.321    16.668    0.40E-03    0.79E-03    0.30E-06
  PAW_PBE C 08Apr2002                   :
 energy of atom  1       EATOM= -147.1560
 kinetic energy error for atom=    0.0032 (will be added to EATOM!!)
  PAW_PBE H 15Jun2001                   :
 energy of atom  2       EATOM=  -12.4884
 kinetic energy error for atom=    0.0002 (will be added to EATOM!!)
  PAW_PBE C 08Apr2002                   :
 energy of atom  3       EATOM= -147.1560
 kinetic energy error for atom=    0.0032 (will be added to EATOM!!)
  PAW_PBE N 08Apr2002                   :
 energy of atom  4       EATOM= -264.5486
 kinetic energy error for atom=    0.0061 (will be added to EATOM!!)
 
 
 POSCAR: Autosave
  positions in direct lattice
  velocities in cartesian coordinates
 exchange correlation table for  LEXCH =        8
   RHO(1)=    0.500       N(1)  =     2000
   RHO(2)=  100.500       N(2)  =     4000
 


--------------------------------------------------------------------------------------------------------


 ion  position               nearest neighbor table
   1  0.000  1.000  1.000- 288 1.55 475 1.55 384 1.55 437 1.55
   2  0.000  1.000  0.500- 474 1.55 383 1.55 289 1.55 436 1.55
   3  1.000  0.250  1.000- 290 1.55 469 1.55 386 1.55 431 1.55
   4  1.000  0.250  0.500- 468 1.55 430 1.55 291 1.55 385 1.55
   5  0.000  0.500  1.000- 292 1.55 471 1.55 388 1.55 433 1.55
   6  0.000  0.500  0.500- 470 1.54 432 1.54 293 1.55 387 1.55
   7  0.000  0.750  1.000- 294 1.55 473 1.55 390 1.55 435 1.55
   8  0.000  0.750  0.500- 295 1.55 472 1.55 389 1.55 434 1.55
   9  0.167  0.000  1.000- 296 1.55 437 1.55 392 1.55 445 1.55
  10  0.167  0.000  0.500- 391 1.55 444 1.55 436 1.55 297 1.55
  11  0.167  0.250  1.000- 298 1.55 431 1.55 439 1.55 394 1.55
  12  0.166  0.250  0.500- 430 1.54 393 1.55 299 1.55 438 1.55
  13  0.167  0.500  1.000- 300 1.55 433 1.55 396 1.55 441 1.55
  14  0.166  0.500  0.500- 440 1.54 432 1.54 301 1.55 395 1.55
  15  0.167  0.750  1.000- 302 1.55 435 1.55 398 1.55 443 1.55
  16  0.167  0.750  0.500- 303 1.55 434 1.55 442 1.55 397 1.55
  17  0.333  0.000  1.000- 304 1.55 452 1.55 400 1.55 445 1.55
  18  0.333  0.000  0.500- 399 1.55 451 1.55 305 1.55 444 1.55
  19  0.333  0.250  1.000- 306 1.55 447 1.55 402 1.55 439 1.55
  20  0.333  0.250  0.500- 401 1.54 438 1.54 446 1.55 307 1.55
  21  0.333  0.500  0.000- 308 1.55 448 1.55 404 1.55 441 1.55
  22  0.333  0.498  0.498- 576 1.48 440 1.54 309 1.56 403 1.56
  23  0.333  0.750  1.000- 310 1.55 450 1.55 443 1.55 406 1.55
  24  0.333  0.751  0.500- 449 1.54 405 1.54 311 1.55 442 1.55
  25  0.500  0.000  1.000- 408 1.55 312 1.55 459 1.55 452 1.55
  26  0.500  0.000  0.500- 313 1.55 407 1.55 458 1.55 451 1.55
  27  0.500  0.250  0.000- 410 1.54 314 1.54 447 1.55 454 1.55
  28  0.500  0.251  0.500- 315 1.54 446 1.55 453 1.55 409 1.56
  29  0.500  0.500  0.000- 411 1.55 455 1.55 448 1.55 316 1.55
  30  0.500  0.750  1.000- 317 1.54 413 1.55 457 1.55 450 1.55
  31  0.500  0.750  0.500- 412 1.54 318 1.55 456 1.55 449 1.55
  32  0.667  0.000  1.000- 319 1.55 415 1.55 459 1.55 467 1.55
  33  0.667  0.000  0.500- 458 1.55 320 1.55 414 1.55 466 1.55
  34  0.667  0.250  0.000- 417 1.55 321 1.55 454 1.55 461 1.55
  35  0.667  0.250  0.500- 416 1.54 460 1.54 322 1.55 453 1.55
  36  0.667  0.500  0.000- 323 1.55 455 1.55 419 1.55 463 1.55
  37  0.666  0.499  0.500- 575 1.49 324 1.55 462 1.55 418 1.56
  38  0.667  0.750  0.000- 325 1.55 457 1.55 421 1.55 465 1.55
  39  0.667  0.751  0.500- 456 1.54 420 1.54 326 1.55 464 1.55
  40  0.833  0.000  0.000- 327 1.55 423 1.55 467 1.55 475 1.55
  41  0.833  0.000  0.500- 422 1.54 466 1.55 474 1.55 328 1.55
  42  0.833  0.250  0.000- 329 1.55 461 1.55 425 1.55 469 1.55
  43  0.833  0.250  0.500- 468 1.55 330 1.55 424 1.55 460 1.55
  44  0.833  0.500  0.000- 331 1.55 463 1.55 427 1.55 471 1.55
  45  0.834  0.500  0.500- 462 1.54 470 1.54 332 1.55 426 1.55
  46  0.833  0.750  0.000- 465 1.55 333 1.55 429 1.55 473 1.55
  47  0.833  0.750  0.500- 464 1.55 334 1.55 472 1.55 428 1.55
  48  0.083  0.125  1.000- 335 1.55 384 1.55 431 1.55 392 1.55
  49  0.083  0.125  0.500- 383 1.55 430 1.55 391 1.55 336 1.55
  50  0.083  0.375  1.000- 337 1.55 386 1.55 433 1.55 394 1.55
  51  0.083  0.375  0.500- 385 1.54 393 1.55 338 1.55 432 1.55
  52  0.083  0.625  1.000- 388 1.55 435 1.55 339 1.55 396 1.55
  53  0.083  0.625  0.500- 340 1.55 434 1.55 395 1.55 387 1.55
  54  0.083  0.875  1.000- 341 1.55 390 1.55 437 1.55 398 1.55
  55  0.083  0.875  0.500- 389 1.55 342 1.55 436 1.55 397 1.55
  56  0.250  0.125  1.000- 343 1.55 439 1.55 400 1.55 392 1.55
  57  0.250  0.125  0.500- 438 1.54 391 1.55 344 1.55 399 1.55
  58  0.250  0.375  1.000- 345 1.54 394 1.55 402 1.55 441 1.55
  59  0.249  0.375  0.500- 393 1.54 346 1.55 401 1.55 440 1.55
  60  0.250  0.625  1.000- 404 1.55 347 1.55 396 1.55 443 1.55
  61  0.250  0.624  0.500- 348 1.54 395 1.55 442 1.55 403 1.55
  62  0.250  0.875  1.000- 349 1.55 445 1.55 398 1.55 406 1.55
  63  0.250  0.875  0.500- 405 1.54 444 1.55 350 1.55 397 1.55
  64  0.417  0.125  1.000- 447 1.55 408 1.55 400 1.55 351 1.55
  65  0.417  0.125  0.500- 352 1.55 407 1.55 446 1.55 399 1.55
  66  0.417  0.375  0.000- 353 1.55 410 1.55 448 1.55 402 1.55
  67  0.415  0.376  0.498- 576 1.48 401 1.55 409 1.56 354 1.56
  68  0.417  0.625  0.000- 411 1.55 404 1.55 355 1.55 450 1.55
  69  0.417  0.626  0.499- 572 1.52 449 1.54 356 1.55 403 1.55
  70  0.417  0.875  1.000- 357 1.55 452 1.55 413 1.55 406 1.55
  71  0.417  0.875  0.500- 451 1.55 412 1.55 358 1.55 405 1.55
  72  0.583  0.125  0.000- 454 1.55 359 1.55 408 1.55 415 1.55
  73  0.583  0.125  0.500- 360 1.55 407 1.55 453 1.55 414 1.55
  74  0.583  0.375  0.001- 455 1.55 410 1.55 361 1.55 417 1.55
  75  0.584  0.376  0.500- 575 1.49 362 1.55 409 1.55 416 1.55
  76  0.583  0.625  0.000- 363 1.55 419 1.55 411 1.55 457 1.55
  77  0.583  0.626  0.499- 572 1.52 456 1.54 418 1.55 364 1.55
  78  0.583  0.875  1.000- 365 1.55 459 1.55 421 1.55 413 1.55
  79  0.583  0.875  0.500- 458 1.55 366 1.55 412 1.55 420 1.55
  80  0.750  0.125  0.000- 367 1.55 461 1.55 415 1.55 423 1.55
  81  0.750  0.125  0.500- 460 1.54 422 1.55 414 1.55 368 1.55
  82  0.750  0.375  0.000- 369 1.54 417 1.55 463 1.55 425 1.55
  83  0.750  0.375  0.500- 424 1.55 370 1.55 416 1.55 462 1.55
  84  0.750  0.625  0.000- 419 1.54 371 1.54 465 1.55 427 1.55
  85  0.750  0.625  0.500- 372 1.55 426 1.55 418 1.55 464 1.55
  86  0.750  0.875  1.000- 373 1.55 467 1.55 421 1.55 429 1.55
  87  0.750  0.875  0.500- 420 1.54 466 1.55 374 1.55 428 1.55
  88  0.917  0.125  1.000- 375 1.55 423 1.55 469 1.55 384 1.55
  89  0.917  0.125  0.500- 383 1.55 422 1.55 468 1.55 376 1.55
  90  0.917  0.375  1.000- 377 1.55 425 1.55 471 1.55 386 1.55
  91  0.917  0.375  0.500- 385 1.54 424 1.55 378 1.55 470 1.55
  92  0.917  0.625  0.000- 427 1.55 379 1.55 473 1.55 388 1.55
  93  0.917  0.625  0.500- 426 1.55 380 1.55 472 1.55 387 1.55
  94  0.917  0.875  0.000- 381 1.55 475 1.55 429 1.55 390 1.55
  95  0.917  0.875  0.500- 474 1.55 428 1.55 382 1.55 389 1.55
  96  1.000  0.083  0.333- 564 1.55 476 1.55 383 1.55 524 1.55
  97  0.000  0.083  0.833- 384 1.55 477 1.55 565 1.55 525 1.55
  98  1.000  0.333  0.333- 566 1.55 526 1.55 385 1.55 478 1.55
  99  0.000  0.333  0.833- 386 1.55 567 1.55 479 1.55 527 1.55
 100  1.000  0.583  0.333- 387 1.55 568 1.55 528 1.55 480 1.55
 101  0.000  0.583  0.833- 569 1.55 388 1.55 481 1.55 529 1.55
 102  0.000  0.833  0.333- 482 1.55 389 1.55 570 1.55 530 1.55
 103  0.000  0.833  0.833- 390 1.55 483 1.55 571 1.55 531 1.55
 104  0.167  0.083  0.333- 524 1.55 484 1.55 532 1.55 391 1.55
 105  0.167  0.083  0.833- 392 1.55 525 1.55 533 1.55 485 1.55
 106  0.166  0.333  0.333- 526 1.54 534 1.55 393 1.55 486 1.55
 107  0.167  0.333  0.833- 394 1.55 527 1.55 535 1.55 487 1.55
 108  0.167  0.583  0.333- 536 1.55 395 1.55 528 1.55 488 1.55
 109  0.167  0.583  0.833- 529 1.55 489 1.55 396 1.55 537 1.55
 110  0.167  0.833  0.333- 538 1.55 397 1.55 530 1.55 490 1.55
 111  0.167  0.833  0.833- 398 1.55 531 1.55 491 1.55 539 1.55
 112  0.333  0.083  0.333- 492 1.55 399 1.55 540 1.55 532 1.55
 113  0.333  0.083  0.833- 400 1.55 541 1.55 493 1.55 533 1.55
 114  0.333  0.333  0.333- 534 1.54 542 1.55 401 1.55 494 1.55
 115  0.333  0.333  0.833- 543 1.55 495 1.55 535 1.55 402 1.55
 116  0.333  0.583  0.333- 403 1.54 544 1.54 496 1.55 536 1.55
 117  0.334  0.583  0.833- 545 1.54 404 1.55 537 1.55 497 1.55
 118  0.333  0.834  0.333- 498 1.54 546 1.55 538 1.55 405 1.55
 119  0.333  0.833  0.833- 406 1.55 547 1.55 539 1.55 499 1.55
 120  0.500  0.083  0.333- 500 1.55 407 1.55 540 1.55 548 1.55
 121  0.500  0.083  0.833- 408 1.55 541 1.55 501 1.55 549 1.55
 122  0.500  0.334  0.334- 409 1.54 502 1.54 550 1.55 542 1.55
 123  0.500  0.333  0.834- 503 1.54 410 1.54 551 1.55 543 1.55
 124  0.500  0.585  0.333- 572 1.52 504 1.54 552 1.55 544 1.55
 125  0.500  0.583  0.833- 505 1.55 411 1.55 553 1.55 545 1.55
 126  0.500  0.834  0.333- 506 1.55 412 1.55 554 1.55 546 1.55
 127  0.500  0.833  0.833- 413 1.55 507 1.55 547 1.55 555 1.55
 128  0.667  0.083  0.333- 508 1.55 414 1.55 548 1.55 556 1.55
 129  0.667  0.083  0.833- 509 1.55 415 1.55 549 1.55 557 1.55
 130  0.667  0.333  0.334- 550 1.55 558 1.55 416 1.55 510 1.55
 131  0.667  0.333  0.834- 511 1.55 551 1.55 417 1.55 559 1.55
 132  0.666  0.583  0.334- 418 1.54 552 1.54 560 1.55 512 1.55
 133  0.667  0.583  0.834- 553 1.54 419 1.54 561 1.55 513 1.55
 134  0.667  0.834  0.333- 514 1.55 554 1.55 562 1.55 420 1.55
 135  0.667  0.833  0.833- 421 1.55 555 1.55 515 1.55 563 1.55
 136  0.833  0.083  0.333- 556 1.55 516 1.55 564 1.55 422 1.55
 137  0.833  0.083  0.833- 423 1.55 517 1.55 557 1.55 565 1.55
 138  0.833  0.333  0.333- 558 1.55 424 1.55 566 1.55 518 1.55
 139  0.833  0.333  0.833- 425 1.55 559 1.55 567 1.55 519 1.55
 140  0.833  0.583  0.333- 426 1.55 560 1.55 520 1.55 568 1.55
 141  0.833  0.583  0.833- 561 1.54 427 1.55 569 1.55 521 1.55
 142  0.833  0.833  0.333- 562 1.55 522 1.55 428 1.55 570 1.55
 143  0.833  0.833  0.833- 563 1.55 429 1.55 523 1.55 571 1.55
 144  0.083  0.208  0.333- 476 1.55 484 1.55 526 1.55 430 1.55
 145  0.083  0.208  0.833- 431 1.55 485 1.55 477 1.55 527 1.55
 146  0.083  0.458  0.333- 478 1.54 486 1.55 528 1.55 432 1.55
 147  0.083  0.458  0.833- 433 1.55 529 1.55 479 1.55 487 1.55
 148  0.083  0.708  0.333- 488 1.55 434 1.55 530 1.55 480 1.55
 149  0.083  0.708  0.833- 481 1.55 435 1.55 531 1.55 489 1.55
 150  0.083  0.958  0.333- 490 1.55 524 1.55 436 1.55 482 1.55
 151  0.083  0.958  0.833- 437 1.55 491 1.55 525 1.55 483 1.55
 152  0.250  0.208  0.333- 484 1.55 534 1.55 492 1.55 438 1.55
 153  0.250  0.208  0.833- 439 1.55 493 1.55 535 1.55 485 1.55
 154  0.249  0.458  0.333- 486 1.54 536 1.55 440 1.55 494 1.55
 155  0.250  0.458  0.833- 537 1.55 495 1.55 441 1.55 487 1.55
 156  0.250  0.708  0.333- 496 1.54 442 1.55 488 1.55 538 1.55
 157  0.250  0.708  0.833- 489 1.55 539 1.55 443 1.55 497 1.55
 158  0.250  0.958  0.333- 532 1.55 498 1.55 444 1.55 490 1.55
 159  0.250  0.958  0.833- 445 1.55 499 1.55 491 1.55 533 1.55
 160  0.417  0.208  0.333- 542 1.55 446 1.55 500 1.55 492 1.55
 161  0.417  0.208  0.833- 493 1.55 501 1.55 543 1.55 447 1.55
 162  0.415  0.458  0.335- 576 1.48 494 1.54 502 1.56 544 1.56
 163  0.417  0.458  0.833- 495 1.55 448 1.55 503 1.55 545 1.55
 164  0.416  0.709  0.333- 546 1.54 496 1.55 449 1.55 504 1.55
 165  0.417  0.708  0.833- 497 1.55 505 1.55 450 1.55 547 1.55
 166  0.417  0.958  0.333- 540 1.55 451 1.55 498 1.55 506 1.55
 167  0.417  0.958  0.833- 452 1.55 541 1.55 499 1.55 507 1.55
 168  0.583  0.209  0.333- 453 1.55 550 1.55 500 1.55 508 1.55
 169  0.583  0.208  0.833- 551 1.54 454 1.55 509 1.55 501 1.55
 170  0.583  0.459  0.336- 575 1.51 502 1.55 552 1.55 510 1.57
 171  0.584  0.458  0.834- 455 1.55 511 1.55 553 1.55 503 1.55
 172  0.583  0.709  0.333- 554 1.54 512 1.55 456 1.55 504 1.55
 173  0.583  0.708  0.833- 513 1.55 457 1.55 505 1.55 555 1.55
 174  0.583  0.958  0.333- 548 1.55 458 1.55 514 1.55 506 1.55
 175  0.583  0.958  0.833- 459 1.55 549 1.55 515 1.55 507 1.55
 176  0.750  0.208  0.333- 508 1.55 516 1.55 460 1.55 558 1.55
 177  0.750  0.208  0.833- 461 1.55 559 1.55 509 1.55 517 1.55
 178  0.750  0.458  0.334- 560 1.55 518 1.55 462 1.55 510 1.55
 179  0.750  0.458  0.834- 511 1.55 463 1.55 519 1.55 561 1.55
 180  0.750  0.708  0.333- 464 1.55 512 1.55 520 1.55 562 1.55
 181  0.750  0.708  0.833- 513 1.55 563 1.55 465 1.55 521 1.55
 182  0.750  0.958  0.333- 556 1.55 514 1.55 466 1.55 522 1.55
 183  0.750  0.958  0.833- 467 1.55 557 1.55 515 1.55 523 1.55
 184  0.917  0.208  0.333- 516 1.55 468 1.55 566 1.55 476 1.55
 185  0.917  0.208  0.833- 469 1.55 517 1.55 567 1.55 477 1.55
 186  0.917  0.458  0.333- 478 1.55 518 1.55 568 1.55 470 1.55
 187  0.917  0.458  0.833- 519 1.55 471 1.55 569 1.55 479 1.55
 188  0.917  0.708  0.333- 520 1.55 472 1.55 570 1.55 480 1.55
 189  0.917  0.708  0.833- 521 1.55 473 1.55 571 1.55 481 1.55
 190  0.917  0.958  0.333- 522 1.55 564 1.55 474 1.55 482 1.55
 191  0.917  0.958  0.833- 475 1.55 523 1.55 565 1.55 483 1.55
 192  1.000  0.167  0.167- 375 1.55 476 1.55 335 1.55 290 1.55
 193  0.000  0.167  0.667- 376 1.55 477 1.55 336 1.55 291 1.55
 194  1.000  0.417  0.167- 377 1.55 478 1.55 337 1.55 292 1.55
 195  0.000  0.417  0.667- 338 1.55 378 1.55 479 1.55 293 1.55
 196  0.000  0.667  0.167- 379 1.55 480 1.55 294 1.55 339 1.55
 197  0.000  0.667  0.667- 481 1.55 380 1.55 295 1.55 340 1.55
 198  0.000  0.917  0.167- 381 1.55 288 1.55 482 1.55 341 1.55
 199  0.000  0.917  0.667- 483 1.55 382 1.55 289 1.55 342 1.55
 200  0.167  0.167  0.167- 335 1.55 484 1.55 298 1.55 343 1.55
 201  0.167  0.167  0.667- 485 1.55 299 1.55 344 1.55 336 1.55
 202  0.166  0.417  0.166- 337 1.54 486 1.55 300 1.55 345 1.55
 203  0.167  0.417  0.667- 346 1.55 301 1.55 487 1.55 338 1.55
 204  0.167  0.667  0.167- 488 1.55 347 1.55 339 1.55 302 1.55
 205  0.167  0.666  0.666- 489 1.55 340 1.55 303 1.55 348 1.55
 206  0.167  0.917  0.167- 296 1.55 490 1.55 349 1.55 341 1.55
 207  0.167  0.917  0.667- 491 1.55 350 1.55 342 1.55 297 1.55
 208  0.333  0.167  0.167- 306 1.55 492 1.55 343 1.55 351 1.55
 209  0.333  0.167  0.667- 493 1.55 352 1.55 307 1.55 344 1.55
 210  0.333  0.416  0.166- 494 1.54 345 1.54 353 1.55 308 1.55
 211  0.334  0.417  0.666- 354 1.54 309 1.54 495 1.55 346 1.55
 212  0.333  0.667  0.167- 496 1.54 355 1.55 347 1.55 310 1.55
 213  0.334  0.666  0.666- 348 1.55 497 1.55 311 1.55 356 1.55
 214  0.333  0.917  0.167- 304 1.55 498 1.55 357 1.55 349 1.55
 215  0.333  0.917  0.667- 499 1.55 358 1.55 350 1.55 305 1.55
 216  0.500  0.167  0.167- 314 1.55 500 1.55 351 1.55 359 1.55
 217  0.500  0.167  0.667- 352 1.55 501 1.55 360 1.55 315 1.55
 218  0.500  0.417  0.168- 316 1.54 353 1.55 361 1.55 502 1.56
 219  0.501  0.417  0.667- 574 1.49 362 1.55 354 1.55 503 1.55
 220  0.500  0.667  0.166- 504 1.54 317 1.54 363 1.55 355 1.55
 221  0.500  0.666  0.666- 364 1.54 356 1.54 505 1.55 318 1.55
 222  0.500  0.917  0.167- 312 1.55 506 1.55 365 1.55 357 1.55
 223  0.500  0.917  0.667- 507 1.55 313 1.55 366 1.55 358 1.55
 224  0.667  0.167  0.167- 508 1.55 321 1.55 359 1.55 367 1.55
 225  0.667  0.167  0.667- 322 1.54 509 1.55 360 1.55 368 1.55
 226  0.667  0.417  0.167- 510 1.54 361 1.55 369 1.55 323 1.55
 227  0.667  0.417  0.667- 324 1.54 362 1.55 511 1.55 370 1.55
 228  0.667  0.667  0.167- 512 1.55 363 1.55 371 1.55 325 1.55
 229  0.666  0.666  0.667- 372 1.55 513 1.55 364 1.55 326 1.55
 230  0.667  0.917  0.167- 319 1.55 514 1.55 365 1.55 373 1.55
 231  0.667  0.917  0.667- 515 1.55 366 1.55 320 1.55 374 1.55
 232  0.833  0.167  0.167- 516 1.55 367 1.55 329 1.55 375 1.55
 233  0.833  0.167  0.667- 330 1.55 517 1.55 368 1.55 376 1.55
 234  0.833  0.417  0.167- 518 1.55 369 1.55 331 1.55 377 1.55
 235  0.833  0.417  0.667- 370 1.55 519 1.55 378 1.55 332 1.55
 236  0.833  0.667  0.167- 371 1.55 520 1.55 333 1.55 379 1.55
 237  0.833  0.667  0.667- 521 1.55 334 1.55 372 1.55 380 1.55
 238  0.833  0.917  0.167- 327 1.55 522 1.55 373 1.55 381 1.55
 239  0.833  0.917  0.667- 374 1.55 328 1.55 523 1.55 382 1.55
 240  0.083  0.042  0.167- 288 1.55 296 1.55 335 1.55 524 1.55
 241  0.083  0.042  0.667- 525 1.55 297 1.55 336 1.55 289 1.55
 242  0.083  0.292  0.167- 290 1.55 526 1.55 298 1.55 337 1.55
 243  0.083  0.292  0.667- 527 1.55 299 1.55 291 1.55 338 1.55
 244  0.083  0.542  0.167- 528 1.55 292 1.55 300 1.55 339 1.55
 245  0.084  0.542  0.667- 529 1.55 340 1.55 293 1.55 301 1.55
 246  0.083  0.792  0.167- 341 1.55 302 1.55 530 1.55 294 1.55
 247  0.083  0.792  0.667- 531 1.55 295 1.55 342 1.55 303 1.55
 248  0.250  0.042  0.167- 343 1.55 532 1.55 304 1.55 296 1.55
 249  0.250  0.042  0.667- 533 1.55 305 1.55 344 1.55 297 1.55
 250  0.250  0.292  0.166- 298 1.54 534 1.55 306 1.55 345 1.55
 251  0.250  0.292  0.667- 346 1.55 307 1.55 535 1.55 299 1.55
 252  0.250  0.542  0.167- 536 1.54 308 1.55 300 1.55 347 1.55
 253  0.251  0.541  0.666- 348 1.54 301 1.55 537 1.55 309 1.56
 254  0.250  0.792  0.167- 538 1.55 310 1.55 349 1.55 302 1.55
 255  0.250  0.792  0.667- 539 1.55 303 1.55 311 1.55 350 1.55
 256  0.417  0.042  0.167- 351 1.55 540 1.55 304 1.55 312 1.55
 257  0.417  0.042  0.667- 541 1.55 305 1.55 352 1.55 313 1.55
 258  0.417  0.292  0.167- 542 1.55 353 1.55 314 1.55 306 1.55
 259  0.417  0.292  0.666- 315 1.54 307 1.55 543 1.55 354 1.56
 260  0.417  0.541  0.167- 316 1.55 308 1.55 355 1.55 544 1.55
 261  0.419  0.541  0.665- 574 1.51 309 1.55 356 1.55 545 1.57
 262  0.417  0.792  0.166- 357 1.55 546 1.55 310 1.55 317 1.55
 263  0.417  0.792  0.667- 547 1.55 318 1.55 311 1.55 358 1.55
 264  0.583  0.042  0.167- 359 1.55 548 1.55 319 1.55 312 1.55
 265  0.583  0.042  0.667- 549 1.55 320 1.55 360 1.55 313 1.55
 266  0.583  0.292  0.167- 550 1.55 361 1.55 314 1.55 321 1.55
 267  0.583  0.292  0.667- 362 1.54 315 1.55 322 1.55 551 1.55
 268  0.583  0.542  0.167- 316 1.55 323 1.55 363 1.55 552 1.55
 269  0.583  0.541  0.667- 574 1.49 324 1.55 553 1.55 364 1.56
 270  0.583  0.792  0.167- 365 1.55 554 1.55 325 1.55 317 1.55
 271  0.583  0.792  0.667- 555 1.55 326 1.55 318 1.55 366 1.55
 272  0.750  0.042  0.167- 367 1.55 556 1.55 319 1.55 327 1.55
 273  0.750  0.042  0.667- 368 1.55 557 1.55 320 1.55 328 1.55
 274  0.750  0.292  0.167- 558 1.55 321 1.55 369 1.55 329 1.55
 275  0.750  0.292  0.667- 370 1.55 559 1.55 330 1.55 322 1.55
 276  0.750  0.542  0.167- 560 1.55 323 1.55 371 1.55 331 1.55
 277  0.750  0.542  0.667- 324 1.54 372 1.55 561 1.55 332 1.55
 278  0.750  0.792  0.167- 562 1.55 373 1.55 325 1.55 333 1.55
 279  0.750  0.792  0.667- 326 1.55 563 1.55 334 1.55 374 1.55
 280  0.917  0.042  0.167- 327 1.55 564 1.55 375 1.55 288 1.55
 281  0.917  0.042  0.667- 328 1.55 565 1.55 376 1.55 289 1.55
 282  0.917  0.292  0.167- 329 1.55 566 1.55 377 1.55 290 1.55
 283  0.917  0.292  0.667- 567 1.55 330 1.55 291 1.55 378 1.55
 284  0.917  0.542  0.167- 568 1.55 331 1.55 379 1.55 292 1.55
 285  0.917  0.542  0.667- 332 1.54 569 1.55 380 1.55 293 1.55
 286  0.917  0.792  0.167- 333 1.55 570 1.55 381 1.55 294 1.55
 287  0.917  0.792  0.667- 571 1.55 334 1.55 382 1.55 295 1.55
 288  1.000  1.000  0.125-   1 1.55 240 1.55 198 1.55 280 1.55
 289  0.000  1.000  0.625-   2 1.55 199 1.55 241 1.55 281 1.55
 290  1.000  0.250  0.125- 242 1.55   3 1.55 192 1.55 282 1.55
 291  1.000  0.250  0.625-   4 1.55 243 1.55 283 1.55 193 1.55
 292  1.000  0.500  0.125-   5 1.55 244 1.55 194 1.55 284 1.55
 293  0.000  0.500  0.625-   6 1.55 195 1.55 245 1.55 285 1.55
 294  0.000  0.750  0.125-   7 1.55 246 1.55 196 1.55 286 1.55
 295  0.000  0.750  0.625-   8 1.55 247 1.55 197 1.55 287 1.55
 296  0.167  0.000  0.125-   9 1.55 240 1.55 206 1.55 248 1.55
 297  0.167  0.000  0.625- 241 1.55  10 1.55 207 1.55 249 1.55
 298  0.167  0.250  0.125- 250 1.54  11 1.55 200 1.55 242 1.55
 299  0.167  0.250  0.625- 243 1.55 201 1.55  12 1.55 251 1.55
 300  0.167  0.500  0.125-  13 1.55 244 1.55 252 1.55 202 1.55
 301  0.167  0.500  0.625-  14 1.55 203 1.55 245 1.55 253 1.55
 302  0.167  0.750  0.125-  15 1.55 246 1.55 254 1.55 204 1.55
 303  0.167  0.750  0.625-  16 1.55 255 1.55 205 1.55 247 1.55
 304  0.333  0.000  0.125- 214 1.55  17 1.55 248 1.55 256 1.55
 305  0.333  0.000  0.625-  18 1.55 249 1.55 257 1.55 215 1.55
 306  0.333  0.250  0.125-  19 1.55 208 1.55 250 1.55 258 1.55
 307  0.333  0.250  0.625-  20 1.55 251 1.55 209 1.55 259 1.55
 308  0.333  0.500  0.125-  21 1.55 252 1.55 210 1.55 260 1.55
 309  0.335  0.499  0.624- 211 1.54 261 1.55  22 1.56 253 1.56
 310  0.333  0.750  0.125-  23 1.55 254 1.55 262 1.55 212 1.55
 311  0.333  0.750  0.625- 263 1.55 255 1.55  24 1.55 213 1.55
 312  0.500  0.000  0.125- 222 1.55  25 1.55 256 1.55 264 1.55
 313  0.500  0.000  0.625-  26 1.55 223 1.55 257 1.55 265 1.55
 314  0.500  0.250  0.125-  27 1.54 216 1.55 258 1.55 266 1.55
 315  0.500  0.250  0.625-  28 1.54 259 1.54 267 1.55 217 1.55
 316  0.500  0.500  0.126- 218 1.54 260 1.55 268 1.55  29 1.55
 317  0.500  0.750  0.125- 220 1.54  30 1.54 262 1.55 270 1.55
 318  0.500  0.750  0.625-  31 1.55 263 1.55 271 1.55 221 1.55
 319  0.667  0.000  0.125- 230 1.55  32 1.55 272 1.55 264 1.55
 320  0.667  0.000  0.625-  33 1.55 273 1.55 231 1.55 265 1.55
 321  0.667  0.250  0.125-  34 1.55 224 1.55 274 1.55 266 1.55
 322  0.667  0.250  0.625- 225 1.54  35 1.55 275 1.55 267 1.55
 323  0.667  0.500  0.125-  36 1.55 276 1.55 226 1.55 268 1.55
 324  0.667  0.500  0.625- 277 1.54 227 1.54 269 1.55  37 1.55
 325  0.667  0.750  0.125-  38 1.55 270 1.55 278 1.55 228 1.55
 326  0.667  0.750  0.625- 279 1.55 271 1.55  39 1.55 229 1.55
 327  0.833  0.000  0.125-  40 1.55 280 1.55 238 1.55 272 1.55
 328  0.833  1.000  0.625- 281 1.55 239 1.55  41 1.55 273 1.55
 329  0.833  0.250  0.125-  42 1.55 282 1.55 232 1.55 274 1.55
 330  0.833  0.250  0.625- 233 1.55 283 1.55  43 1.55 275 1.55
 331  0.833  0.500  0.125-  44 1.55 284 1.55 234 1.55 276 1.55
 332  0.834  0.500  0.625- 285 1.54  45 1.55 235 1.55 277 1.55
 333  0.833  0.750  0.125- 286 1.55  46 1.55 278 1.55 236 1.55
 334  0.833  0.750  0.625-  47 1.55 287 1.55 279 1.55 237 1.55
 335  0.083  0.125  0.125- 200 1.55  48 1.55 240 1.55 192 1.55
 336  0.083  0.125  0.625- 193 1.55 241 1.55  49 1.55 201 1.55
 337  0.083  0.375  0.125- 202 1.54  50 1.55 194 1.55 242 1.55
 338  0.083  0.375  0.625- 195 1.55 243 1.55  51 1.55 203 1.55
 339  0.083  0.625  0.125- 204 1.55 244 1.55  52 1.55 196 1.55
 340  0.083  0.625  0.625-  53 1.55 245 1.55 205 1.55 197 1.55
 341  0.083  0.875  0.125-  54 1.55 246 1.55 198 1.55 206 1.55
 342  0.083  0.875  0.625-  55 1.55 207 1.55 199 1.55 247 1.55
 343  0.250  0.125  0.125-  56 1.55 248 1.55 200 1.55 208 1.55
 344  0.250  0.125  0.625- 201 1.55  57 1.55 249 1.55 209 1.55
 345  0.250  0.375  0.124- 210 1.54  58 1.54 202 1.55 250 1.55
 346  0.250  0.375  0.625- 203 1.55 251 1.55  59 1.55 211 1.55
 347  0.250  0.625  0.125-  60 1.55 204 1.55 252 1.55 212 1.55
 348  0.250  0.625  0.625-  61 1.54 253 1.54 213 1.55 205 1.55
 349  0.250  0.875  0.125-  62 1.55 206 1.55 254 1.55 214 1.55
 350  0.250  0.875  0.625- 207 1.55  63 1.55 215 1.55 255 1.55
 351  0.417  0.125  0.125- 256 1.55  64 1.55 208 1.55 216 1.55
 352  0.417  0.125  0.625-  65 1.55 209 1.55 217 1.55 257 1.55
 353  0.417  0.375  0.125- 258 1.55 210 1.55  66 1.55 218 1.55
 354  0.417  0.376  0.624- 211 1.54 219 1.55 259 1.56  67 1.56
 355  0.417  0.625  0.125- 212 1.55  68 1.55 220 1.55 260 1.55
 356  0.417  0.625  0.624- 221 1.54  69 1.55 213 1.55 261 1.55
 357  0.417  0.875  0.125- 262 1.55  70 1.55 214 1.55 222 1.55
 358  0.417  0.875  0.625-  71 1.55 215 1.55 223 1.55 263 1.55
 359  0.583  0.125  0.125- 264 1.55  72 1.55 216 1.55 224 1.55
 360  0.583  0.125  0.625-  73 1.55 217 1.55 265 1.55 225 1.55
 361  0.583  0.375  0.126- 266 1.55 226 1.55  74 1.55 218 1.55
 362  0.583  0.375  0.625- 267 1.54 227 1.55 219 1.55  75 1.55
 363  0.583  0.625  0.125-  76 1.55 228 1.55 220 1.55 268 1.55
 364  0.583  0.625  0.625- 221 1.54 229 1.55  77 1.55 269 1.56
 365  0.583  0.875  0.125- 270 1.55  78 1.55 222 1.55 230 1.55
 366  0.583  0.875  0.625-  79 1.55 231 1.55 223 1.55 271 1.55
 367  0.750  0.125  0.125- 272 1.55  80 1.55 232 1.55 224 1.55
 368  0.750  0.125  0.625- 273 1.55 233 1.55  81 1.55 225 1.55
 369  0.750  0.375  0.125-  82 1.54 226 1.55 274 1.55 234 1.55
 370  0.750  0.375  0.625-  83 1.55 275 1.55 235 1.55 227 1.55
 371  0.750  0.625  0.125-  84 1.54 236 1.55 228 1.55 276 1.55
 372  0.750  0.625  0.625-  85 1.55 229 1.55 237 1.55 277 1.55
 373  0.750  0.875  0.125-  86 1.55 238 1.55 278 1.55 230 1.55
 374  0.750  0.875  0.625- 239 1.55  87 1.55 231 1.55 279 1.55
 375  0.917  0.125  0.125- 192 1.55  88 1.55 280 1.55 232 1.55
 376  0.917  0.125  0.625- 193 1.55 281 1.55  89 1.55 233 1.55
 377  0.917  0.375  0.125- 194 1.55  90 1.55 282 1.55 234 1.55
 378  0.917  0.375  0.625- 195 1.55  91 1.55 235 1.55 283 1.55
 379  0.917  0.625  0.125- 196 1.55  92 1.55 284 1.55 236 1.55
 380  0.917  0.625  0.625-  93 1.55 197 1.55 285 1.55 237 1.55
 381  0.917  0.875  0.125-  94 1.55 198 1.55 286 1.55 238 1.55
 382  0.917  0.875  0.625- 199 1.55  95 1.55 287 1.55 239 1.55
 383  1.000  0.083  0.458-  49 1.55  89 1.55   2 1.55  96 1.55
 384  1.000  0.083  0.958-  97 1.55  48 1.55   1 1.55  88 1.55
 385  1.000  0.333  0.458-  51 1.54  91 1.54   4 1.55  98 1.55
 386  1.000  0.333  0.958-  50 1.55  99 1.55   3 1.55  90 1.55
 387  0.000  0.583  0.458- 100 1.55  53 1.55  93 1.55   6 1.55
 388  0.000  0.583  0.958-  52 1.55 101 1.55   5 1.55  92 1.55
 389  0.000  0.833  0.458-  55 1.55   8 1.55  95 1.55 102 1.55
 390  0.000  0.833  0.958- 103 1.55  54 1.55   7 1.55  94 1.55
 391  0.167  0.083  0.458-  10 1.55  57 1.55  49 1.55 104 1.55
 392  0.167  0.083  0.958- 105 1.55   9 1.55  56 1.55  48 1.55
 393  0.166  0.333  0.458-  59 1.54  51 1.55  12 1.55 106 1.55
 394  0.167  0.333  0.958- 107 1.55  58 1.55  11 1.55  50 1.55
 395  0.167  0.583  0.458- 108 1.55  53 1.55  14 1.55  61 1.55
 396  0.167  0.583  0.958-  13 1.55  60 1.55  52 1.55 109 1.55
 397  0.167  0.833  0.458- 110 1.55  55 1.55  63 1.55  16 1.55
 398  0.167  0.833  0.958- 111 1.55  15 1.55  62 1.55  54 1.55
 399  0.333  0.083  0.458-  18 1.55  57 1.55 112 1.55  65 1.55
 400  0.333  0.083  0.958- 113 1.55  17 1.55  56 1.55  64 1.55
 401  0.333  0.333  0.458-  20 1.54  67 1.55  59 1.55 114 1.55
 402  0.333  0.333  0.958-  19 1.55  58 1.55 115 1.55  66 1.55
 403  0.334  0.583  0.458- 116 1.54  69 1.55  61 1.55  22 1.56
 404  0.333  0.583  0.958-  60 1.55 117 1.55  21 1.55  68 1.55
 405  0.333  0.834  0.458-  24 1.54  63 1.54 118 1.55  71 1.55
 406  0.333  0.833  0.958- 119 1.55  62 1.55  23 1.55  70 1.55
 407  0.500  0.083  0.458-  73 1.55  26 1.55  65 1.55 120 1.55
 408  0.500  0.083  0.958-  25 1.55  64 1.55 121 1.55  72 1.55
 409  0.500  0.335  0.458- 122 1.54  75 1.55  28 1.56  67 1.56
 410  0.500  0.333  0.959- 123 1.54  27 1.54  66 1.55  74 1.55
 411  0.500  0.583  0.958-  68 1.55  29 1.55  76 1.55 125 1.55
 412  0.500  0.834  0.458-  31 1.54  71 1.55  79 1.55 126 1.55
 413  0.500  0.833  0.958- 127 1.55  30 1.55  70 1.55  78 1.55
 414  0.667  0.083  0.458-  33 1.55 128 1.55  81 1.55  73 1.55
 415  0.667  0.083  0.958-  32 1.55 129 1.55  80 1.55  72 1.55
 416  0.667  0.332  0.459-  35 1.54 130 1.55  83 1.55  75 1.55
 417  0.667  0.333  0.959-  34 1.55  82 1.55 131 1.55  74 1.55
 418  0.666  0.583  0.459- 132 1.54  85 1.55  77 1.55  37 1.56
 419  0.667  0.583  0.959- 133 1.54  84 1.54  76 1.55  36 1.55
 420  0.667  0.834  0.458-  39 1.54  87 1.54 134 1.55  79 1.55
 421  0.667  0.833  0.958- 135 1.55  86 1.55  38 1.55  78 1.55
 422  0.833  0.083  0.458-  41 1.54  81 1.55  89 1.55 136 1.55
 423  0.833  0.083  0.958- 137 1.55  40 1.55  88 1.55  80 1.55
 424  0.833  0.333  0.458-  83 1.55  91 1.55  43 1.55 138 1.55
 425  0.833  0.333  0.958- 139 1.55  90 1.55  42 1.55  82 1.55
 426  0.833  0.583  0.458- 140 1.55  93 1.55  45 1.55  85 1.55
 427  0.833  0.583  0.958-  92 1.55 141 1.55  44 1.55  84 1.55
 428  0.833  0.833  0.458-  95 1.55 142 1.55  87 1.55  47 1.55
 429  0.833  0.833  0.958- 143 1.55  94 1.55  46 1.55  86 1.55
 430  0.083  0.208  0.458-  12 1.54  49 1.55   4 1.55 144 1.55
 431  0.083  0.208  0.958-  11 1.55 145 1.55  48 1.55   3 1.55
 432  0.083  0.458  0.458-  14 1.54   6 1.54 146 1.55  51 1.55
 433  0.083  0.458  0.958- 147 1.55  13 1.55  50 1.55   5 1.55
 434  0.083  0.708  0.458-  16 1.55 148 1.55  53 1.55   8 1.55
 435  0.083  0.708  0.958-  15 1.55  52 1.55 149 1.55   7 1.55
 436  0.083  0.958  0.458-  10 1.55 150 1.55   2 1.55  55 1.55
 437  0.083  0.958  0.958- 151 1.55   9 1.55  54 1.55   1 1.55
 438  0.250  0.208  0.458-  20 1.54  57 1.54  12 1.55 152 1.55
 439  0.250  0.208  0.958- 153 1.55  56 1.55  11 1.55  19 1.55
 440  0.249  0.458  0.458-  14 1.54  22 1.54 154 1.55  59 1.55
 441  0.250  0.458  0.958-  13 1.55  58 1.55 155 1.55  21 1.55
 442  0.250  0.708  0.458- 156 1.55  24 1.55  16 1.55  61 1.55
 443  0.250  0.708  0.958-  23 1.55  60 1.55 157 1.55  15 1.55
 444  0.250  0.958  0.458-  63 1.55  10 1.55 158 1.55  18 1.55
 445  0.250  0.958  0.958- 159 1.55  62 1.55   9 1.55  17 1.55
 446  0.417  0.208  0.458-  20 1.55 160 1.55  65 1.55  28 1.55
 447  0.417  0.208  0.958-  19 1.55  64 1.55  27 1.55 161 1.55
 448  0.417  0.458  0.958-  21 1.55  66 1.55  29 1.55 163 1.55
 449  0.416  0.709  0.458-  24 1.54  69 1.54 164 1.55  31 1.55
 450  0.417  0.708  0.958-  23 1.55  30 1.55 165 1.55  68 1.55
 451  0.417  0.958  0.458-  71 1.55  18 1.55 166 1.55  26 1.55
 452  0.417  0.958  0.958-  70 1.55 167 1.55  17 1.55  25 1.55
 453  0.583  0.209  0.458- 168 1.55  35 1.55  73 1.55  28 1.55
 454  0.583  0.208  0.958-  72 1.55 169 1.55  34 1.55  27 1.55
 455  0.583  0.458  0.959- 171 1.55  74 1.55  36 1.55  29 1.55
 456  0.584  0.709  0.458-  77 1.54  39 1.54 172 1.55  31 1.55
 457  0.583  0.708  0.958-  38 1.55 173 1.55  30 1.55  76 1.55
 458  0.583  0.958  0.458-  79 1.55  33 1.55  26 1.55 174 1.55
 459  0.583  0.958  0.958-  78 1.55 175 1.55  32 1.55  25 1.55
 460  0.750  0.208  0.458-  35 1.54  81 1.54 176 1.55  43 1.55
 461  0.750  0.208  0.958- 177 1.55  80 1.55  42 1.55  34 1.55
 462  0.751  0.459  0.459-  45 1.54 178 1.55  83 1.55  37 1.55
 463  0.750  0.458  0.959- 179 1.55  44 1.55  82 1.55  36 1.55
 464  0.750  0.708  0.458-  47 1.55 180 1.55  39 1.55  85 1.55
 465  0.750  0.708  0.958-  46 1.55  38 1.55 181 1.55  84 1.55
 466  0.750  0.958  0.458-  87 1.55  41 1.55 182 1.55  33 1.55
 467  0.750  0.958  0.958- 183 1.55  86 1.55  40 1.55  32 1.55
 468  0.917  0.208  0.458-  43 1.55   4 1.55  89 1.55 184 1.55
 469  0.917  0.208  0.958- 185 1.55   3 1.55  88 1.55  42 1.55
 470  0.917  0.458  0.458-  45 1.54   6 1.54 186 1.55  91 1.55
 471  0.917  0.458  0.958- 187 1.55   5 1.55  90 1.55  44 1.55
 472  0.917  0.708  0.458-   8 1.55 188 1.55  47 1.55  93 1.55
 473  0.917  0.708  0.958-   7 1.55 189 1.55  92 1.55  46 1.55
 474  0.917  0.958  0.458-  41 1.55  95 1.55   2 1.55 190 1.55
 475  0.917  0.958  0.958- 191 1.55  94 1.55   1 1.55  40 1.55
 476  1.000  0.167  0.292- 144 1.55 192 1.55  96 1.55 184 1.55
 477  0.000  0.167  0.792- 193 1.55  97 1.55 145 1.55 185 1.55
 478  1.000  0.417  0.292- 146 1.54 186 1.55 194 1.55  98 1.55
 479  0.000  0.417  0.792- 195 1.55 147 1.55  99 1.55 187 1.55
 480  1.000  0.667  0.292- 196 1.55 148 1.55 100 1.55 188 1.55
 481  0.000  0.667  0.792- 197 1.55 149 1.55 101 1.55 189 1.55
 482  1.000  0.917  0.292- 102 1.55 198 1.55 150 1.55 190 1.55
 483  0.000  0.917  0.792- 199 1.55 103 1.55 151 1.55 191 1.55
 484  0.167  0.167  0.292- 152 1.55 104 1.55 200 1.55 144 1.55
 485  0.167  0.167  0.792- 201 1.55 145 1.55 105 1.55 153 1.55
 486  0.166  0.417  0.291- 154 1.54 146 1.55 202 1.55 106 1.55
 487  0.167  0.417  0.791- 203 1.55 107 1.55 147 1.55 155 1.55
 488  0.167  0.667  0.292- 148 1.55 204 1.55 156 1.55 108 1.55
 489  0.167  0.667  0.791- 109 1.55 205 1.55 157 1.55 149 1.55
 490  0.167  0.917  0.292- 150 1.55 206 1.55 110 1.55 158 1.55
 491  0.167  0.917  0.792- 207 1.55 151 1.55 159 1.55 111 1.55
 492  0.333  0.167  0.292- 112 1.55 208 1.55 152 1.55 160 1.55
 493  0.333  0.167  0.792- 209 1.55 161 1.55 153 1.55 113 1.55
 494  0.332  0.416  0.290- 210 1.54 162 1.54 154 1.55 114 1.55
 495  0.334  0.417  0.791- 115 1.55 155 1.55 163 1.55 211 1.55
 496  0.333  0.667  0.292- 212 1.54 156 1.54 164 1.55 116 1.55
 497  0.334  0.667  0.791- 165 1.55 117 1.55 157 1.55 213 1.55
 498  0.333  0.917  0.292- 118 1.54 158 1.55 214 1.55 166 1.55
 499  0.333  0.917  0.792- 215 1.55 159 1.55 167 1.55 119 1.55
 500  0.500  0.167  0.292- 120 1.55 216 1.55 160 1.55 168 1.55
 501  0.500  0.167  0.792- 161 1.55 217 1.55 121 1.55 169 1.55
 502  0.500  0.417  0.294- 122 1.54 170 1.55 162 1.56 218 1.56
 503  0.500  0.416  0.793- 123 1.54 163 1.55 171 1.55 219 1.55
 504  0.500  0.667  0.290- 220 1.54 124 1.54 164 1.55 172 1.55
 505  0.500  0.667  0.792- 165 1.55 125 1.55 173 1.55 221 1.55
 506  0.500  0.917  0.292- 126 1.55 222 1.55 166 1.55 174 1.55
 507  0.500  0.917  0.792- 223 1.55 127 1.55 167 1.55 175 1.55
 508  0.667  0.167  0.292- 128 1.55 224 1.55 176 1.55 168 1.55
 509  0.667  0.167  0.792- 129 1.55 225 1.55 177 1.55 169 1.55
 510  0.667  0.417  0.292- 226 1.54 130 1.55 178 1.55 170 1.57
 511  0.667  0.417  0.792- 131 1.55 179 1.55 171 1.55 227 1.55
 512  0.667  0.667  0.292- 228 1.55 172 1.55 180 1.55 132 1.55
 513  0.667  0.667  0.792- 181 1.55 173 1.55 133 1.55 229 1.55
 514  0.667  0.917  0.292- 134 1.55 230 1.55 182 1.55 174 1.55
 515  0.667  0.917  0.792- 231 1.55 183 1.55 135 1.55 175 1.55
 516  0.833  0.167  0.292- 184 1.55 232 1.55 136 1.55 176 1.55
 517  0.833  0.167  0.792- 233 1.55 185 1.55 137 1.55 177 1.55
 518  0.833  0.417  0.292- 234 1.55 186 1.55 138 1.55 178 1.55
 519  0.833  0.417  0.792- 187 1.55 235 1.55 139 1.55 179 1.55
 520  0.833  0.667  0.292- 236 1.55 188 1.55 180 1.55 140 1.55
 521  0.833  0.667  0.792- 189 1.55 237 1.55 181 1.55 141 1.55
 522  0.833  0.917  0.292- 190 1.55 238 1.55 142 1.55 182 1.55
 523  0.833  0.917  0.792- 239 1.55 191 1.55 143 1.55 183 1.55
 524  0.083  0.042  0.292- 104 1.55 150 1.55 240 1.55  96 1.55
 525  0.083  0.042  0.792- 241 1.55 105 1.55 151 1.55  97 1.55
 526  0.083  0.292  0.292- 106 1.54 242 1.55 144 1.55  98 1.55
 527  0.083  0.292  0.792- 243 1.55 107 1.55 145 1.55  99 1.55
 528  0.083  0.542  0.292- 244 1.55 108 1.55 100 1.55 146 1.55
 529  0.083  0.542  0.792- 245 1.55 109 1.55 147 1.55 101 1.55
 530  0.083  0.792  0.292- 110 1.55 246 1.55 148 1.55 102 1.55
 531  0.083  0.792  0.792- 247 1.55 111 1.55 149 1.55 103 1.55
 532  0.250  0.042  0.292- 158 1.55 248 1.55 104 1.55 112 1.55
 533  0.250  0.042  0.792- 249 1.55 105 1.55 113 1.55 159 1.55
 534  0.250  0.291  0.291- 114 1.54 250 1.55 152 1.55 106 1.55
 535  0.250  0.292  0.792- 251 1.55 107 1.55 153 1.55 115 1.55
 536  0.250  0.542  0.291- 252 1.54 108 1.55 154 1.55 116 1.55
 537  0.250  0.542  0.791- 155 1.55 117 1.55 109 1.55 253 1.55
 538  0.250  0.792  0.292- 110 1.55 254 1.55 118 1.55 156 1.55
 539  0.250  0.792  0.792- 255 1.55 119 1.55 111 1.55 157 1.55
 540  0.417  0.042  0.292- 166 1.55 256 1.55 112 1.55 120 1.55
 541  0.417  0.042  0.792- 257 1.55 113 1.55 167 1.55 121 1.55
 542  0.417  0.292  0.292- 258 1.55 160 1.55 114 1.55 122 1.55
 543  0.417  0.292  0.791- 115 1.55 123 1.55 161 1.55 259 1.55
 544  0.416  0.542  0.293- 116 1.54 124 1.55 260 1.55 162 1.56
 545  0.417  0.542  0.792- 117 1.54 163 1.55 125 1.55 261 1.57
 546  0.417  0.792  0.291- 164 1.54 262 1.55 118 1.55 126 1.55
 547  0.417  0.792  0.792- 263 1.55 119 1.55 127 1.55 165 1.55
 548  0.583  0.042  0.292- 174 1.55 264 1.55 128 1.55 120 1.55
 549  0.583  0.042  0.792- 265 1.55 175 1.55 129 1.55 121 1.55
 550  0.583  0.292  0.292- 266 1.55 168 1.55 130 1.55 122 1.55
 551  0.583  0.292  0.792- 169 1.54 131 1.55 123 1.55 267 1.55
 552  0.583  0.542  0.293- 132 1.54 124 1.55 268 1.55 170 1.55
 553  0.584  0.542  0.793- 133 1.54 125 1.55 171 1.55 269 1.55
 554  0.583  0.792  0.291- 172 1.54 270 1.55 134 1.55 126 1.55
 555  0.583  0.792  0.792- 271 1.55 135 1.55 127 1.55 173 1.55
 556  0.750  0.042  0.292- 182 1.55 136 1.55 272 1.55 128 1.55
 557  0.750  0.042  0.792- 273 1.55 183 1.55 137 1.55 129 1.55
 558  0.750  0.292  0.292- 274 1.55 138 1.55 176 1.55 130 1.55
 559  0.750  0.292  0.792- 177 1.55 275 1.55 139 1.55 131 1.55
 560  0.750  0.542  0.292- 276 1.55 178 1.55 140 1.55 132 1.55
 561  0.750  0.542  0.792- 141 1.54 179 1.55 133 1.55 277 1.55
 562  0.750  0.792  0.292- 278 1.55 142 1.55 134 1.55 180 1.55
 563  0.750  0.792  0.792- 279 1.55 143 1.55 181 1.55 135 1.55
 564  0.917  0.042  0.292- 136 1.55  96 1.55 280 1.55 190 1.55
 565  0.917  0.042  0.792- 281 1.55 191 1.55 137 1.55  97 1.55
 566  0.917  0.292  0.292-  98 1.55 282 1.55 184 1.55 138 1.55
 567  0.917  0.292  0.792- 283 1.55  99 1.55 139 1.55 185 1.55
 568  0.917  0.542  0.292- 284 1.55 100 1.55 186 1.55 140 1.55
 569  0.917  0.542  0.792- 101 1.55 285 1.55 141 1.55 187 1.55
 570  0.917  0.792  0.292- 286 1.55 102 1.55 142 1.55 188 1.55
 571  0.917  0.792  0.792- 287 1.55 189 1.55 103 1.55 143 1.55
 572  0.500  0.589  0.455- 573 1.09 124 1.52  69 1.52  77 1.52
 573  0.501  0.531  0.486- 572 1.09
 574  0.502  0.499  0.633- 219 1.49 269 1.49 261 1.51
 575  0.590  0.455  0.458-  75 1.49  37 1.49 170 1.51
 576  0.409  0.455  0.454- 162 1.48  22 1.48  67 1.48
 
  LATTYP: Found a simple monoclinic cell.
 ALAT       =    12.3703241348
 B/A-ratio  =     1.2248453018
 C/A-ratio  =     1.4141600350
 COS(beta)  =    -0.0000282295
  
  Lattice vectors:
  
 A1 = (   0.0000000000,  -0.0003492082,  12.3703241299)
 A2 = (  15.1517333984,   0.0000000000,   0.0000000000)
 A3 = (   0.0000000000,  17.4936180115,   0.0000000000)


Analysis of symmetry for initial positions (statically):
=====================================================================
 Subroutine PRICEL returns:
 Original cell was already a primitive cell.
 

 Routine SETGRP: Setting up the symmetry group for a 
 simple monoclinic supercell.


 Subroutine GETGRP returns: Found  1 space group operations
 (whereof  1 operations were pure point group operations)
 out of a pool of  4 trial point group operations.


The static configuration has the point symmetry C_1 .


Analysis of symmetry for dynamics (positions and initial velocities):
=====================================================================
 Subroutine PRICEL returns:
 Original cell was already a primitive cell.
 

 Routine SETGRP: Setting up the symmetry group for a 
 simple monoclinic supercell.


 Subroutine GETGRP returns: Found  1 space group operations
 (whereof  1 operations were pure point group operations)
 out of a pool of  4 trial point group operations.


The dynamic configuration has the point symmetry C_1 .


Analysis of structural, dynamic, and magnetic symmetry:
=====================================================================
 Subroutine PRICEL returns:
 Original cell was already a primitive cell.
 

 Routine SETGRP: Setting up the symmetry group for a 
 simple monoclinic supercell.


 Subroutine GETGRP returns: Found  1 space group operations
 (whereof  1 operations were pure point group operations)
 out of a pool of  4 trial point group operations.


The overall configuration has the point symmetry C_1 .


 Subroutine INISYM returns: Found  1 space group operations
 (whereof  1 operations are pure point group operations),
 and found     1 'primitive' translations


----------------------------------------------------------------------------------------

                                     Primitive cell                                     

  volume of cell :    3278.8612

  direct lattice vectors                    reciprocal lattice vectors
    15.151733398  0.000000000  0.000000000     0.065999049  0.000000000  0.000000000
     0.000000000 17.493618012  0.000000000     0.000000000  0.057163704  0.000001614
     0.000000000 -0.000349208 12.370324130     0.000000000  0.000000000  0.080838626

  length of vectors
    15.151733398 17.493618012 12.370324135     0.065999049  0.057163704  0.080838626

  position of ions in fractional coordinates (direct lattice)
     0.000004121  0.999983378  0.999995049
     0.000007217  0.999953528  0.500025575
     0.999962659  0.249986245  0.999936891
     0.999953084  0.249941658  0.499967673
     0.000014085  0.499986954  0.999978248
     0.000028284  0.499948998  0.499962899
     0.000041797  0.749968439  0.999993126
     0.000038060  0.749975319  0.500027672
     0.166660694  0.000007602  0.999979319
     0.166601222  0.000012669  0.500004451
     0.166617375  0.249983753  0.999868178
     0.166491603  0.249877952  0.499913373
     0.166697100  0.499971992  0.999848648
     0.166113465  0.499865906  0.499761991
     0.166716718  0.749971882  0.999938886
     0.166741757  0.749862140  0.499964808
     0.333340167  0.000059866  0.999949702
     0.333323443  0.000108102  0.499979830
     0.333332715  0.250044872  0.999935772
     0.332955500  0.249718957  0.499851114
     0.333371567  0.499994711  0.000054284
     0.333258500  0.498248308  0.497888734
     0.333378870  0.749990487  0.999929444
     0.333162309  0.750513557  0.499813255
     0.499998758  0.000070531  0.999960692
     0.499996566  0.000117065  0.499988257
     0.499995655  0.249967045  0.000308251
     0.499678725  0.250757599  0.500015189
     0.500001965  0.499981199  0.000341819
     0.500013090  0.750095435  0.999815295
     0.499993672  0.750377650  0.499896359
     0.666664615  0.000050986  0.999999127
     0.666641664  0.000137593  0.499995467
     0.666646217  0.250039945  0.000186872
     0.667036626  0.249647817  0.500093745
     0.666690967  0.500025991  0.000440824
     0.666496338  0.499375800  0.500265400
     0.666666537  0.750023594  0.000036844
     0.666865231  0.750555084  0.499928712
     0.833346069  0.000008995  0.000015956
     0.833410270  0.000009497  0.500009082
     0.833330933  0.250005344  0.000037208
     0.833389400  0.249915864  0.500065285
     0.833336394  0.500008051  0.000172082
     0.833907179  0.499920316  0.500092907
     0.833360413  0.750004754  0.000065320
     0.833348610  0.750002915  0.500037174
     0.083305075  0.124990352  0.999941874
     0.083265318  0.124946608  0.499979590
     0.083273087  0.374970984  0.999821457
     0.083143511  0.374910796  0.499898580
     0.083403772  0.624960396  0.999893458
     0.083380651  0.624970451  0.499935216
     0.083349920  0.874978099  0.999984556
     0.083351907  0.874948296  0.500013568
     0.249990782  0.125028151  0.999931145
     0.249864252  0.124924890  0.499949006
     0.249896592  0.374939776  0.999702261
     0.249472224  0.374753109  0.499810137
     0.250034204  0.624974912  0.999996646
     0.250371395  0.624455462  0.499794562
     0.250018109  0.875007777  0.999946166
     0.249933202  0.875168417  0.499958761
     0.416664836  0.125078772  0.999929568
     0.416664535  0.125149867  0.499979483
     0.416709392  0.374997871  0.000255389
     0.415064448  0.376185831  0.498183465
     0.416676992  0.624897699  0.000190778
     0.416802753  0.626233565  0.499029316
     0.416678211  0.875075525  0.999878200
     0.416630597  0.875194724  0.499947118
     0.583332593  0.125045601  0.000066782
     0.583206586  0.125234419  0.500027296
     0.583222408  0.375030971  0.000587976
     0.583938203  0.375654406  0.500196128
     0.583392464  0.624984774  0.000275233
     0.583262536  0.626277345  0.499350848
     0.583329159  0.875072639  0.999907072
     0.583361332  0.875205938  0.499960813
     0.749996935  0.125026087  0.000049683
     0.750131854  0.124885808  0.500022156
     0.750023564  0.374990965  0.000132102
     0.750149503  0.374928148  0.500246126
     0.750108701  0.625050977  0.000404510
     0.749752352  0.624851854  0.500053331
     0.750007473  0.875019014  0.999995095
     0.750081091  0.875207188  0.499981904
     0.916664018  0.124994447  0.999983762
     0.916690789  0.124953875  0.500012919
     0.916641848  0.374992842  0.999996853
     0.916713804  0.374953680  0.500036817
     0.916721259  0.624993260  0.000090169
     0.916666929  0.625005171  0.500033073
     0.916689953  0.874985715  0.000008339
     0.916708262  0.874984176  0.500019604
     0.999967284  0.083299657  0.333322843
     0.000008915  0.083319061  0.833330109
     0.999878001  0.333296722  0.333280035
     0.000006594  0.333319300  0.833266885
     0.999939183  0.583330893  0.333326627
     0.000109955  0.583305414  0.833323933
     0.000002609  0.833326369  0.333352229
     0.000045204  0.833289223  0.833331952
     0.166587506  0.083307543  0.333280769
     0.166682389  0.083346321  0.833293708
     0.166418988  0.333235947  0.333130907
     0.166691097  0.333325797  0.833144001
     0.166570842  0.583313319  0.333209664
     0.166923482  0.583213484  0.832990702
     0.166669912  0.833349109  0.333307633
     0.166735278  0.833287634  0.833286555
     0.333279863  0.083399244  0.333290474
     0.333335976  0.083401810  0.833260342
     0.332854297  0.333054753  0.332970216
     0.333427187  0.333420518  0.833136336
     0.333234792  0.583359005  0.333232713
     0.333519690  0.583247759  0.833396838
     0.333241912  0.833546483  0.333224414
     0.333371706  0.833318156  0.833247014
     0.499977460  0.083439981  0.333367208
     0.499999697  0.083427693  0.833286097
     0.499881304  0.333613662  0.333779322
     0.500096100  0.333144548  0.834086541
     0.499821762  0.584732194  0.332942272
     0.500204745  0.583248888  0.833364998
     0.499977519  0.833512064  0.333264991
     0.500018702  0.833358565  0.833247579
     0.666656107  0.083445090  0.333359310
     0.666695508  0.083361181  0.833355366
     0.666638259  0.333353075  0.333702165
     0.666687989  0.333359420  0.833558543
     0.666408481  0.583335790  0.333824039
     0.667017624  0.583403619  0.834149329
     0.666718399  0.833538845  0.333280471
     0.666684939  0.833343636  0.833293545
     0.833348313  0.083337504  0.333329260
     0.833340542  0.083329031  0.833349487
     0.833243002  0.333353851  0.333445478
     0.833353777  0.333328423  0.833381004
     0.833227563  0.583334734  0.333488438
     0.833431868  0.583315447  0.833491252
     0.833327668  0.833377653  0.333344022
     0.833351628  0.833322848  0.833339264
     0.083244586  0.208280299  0.333257216
     0.083349889  0.208332575  0.833273485
     0.083087679  0.458282860  0.333163402
     0.083428401  0.458314170  0.833232961
     0.083332943  0.708336862  0.333343685
     0.083459478  0.708257896  0.833253831
     0.083331325  0.958316781  0.333342217
     0.083372567  0.958314660  0.833349195
     0.249801949  0.208225279  0.333231691
     0.250022262  0.208381961  0.833270598
     0.249303901  0.458212044  0.332834157
     0.250213128  0.458298791  0.833098378
     0.249977095  0.708348954  0.333292164
     0.250174684  0.708244192  0.833186168
     0.249956691  0.958430506  0.333324384
     0.250021185  0.958351515  0.833330966
     0.416579868  0.208417996  0.333366095
     0.416659406  0.208492805  0.833114992
     0.414631098  0.457544516  0.335034266
     0.416869961  0.458243890  0.833361218
     0.416487126  0.708783972  0.333008182
     0.416764171  0.708222666  0.833222817
     0.416629398  0.958458192  0.333297734
     0.416661332  0.958390052  0.833277953
     0.583275529  0.208509767  0.333481120
     0.583390526  0.208370615  0.833445812
     0.582871892  0.458615505  0.336361473
     0.583514458  0.458274474  0.833736552
     0.583383283  0.708724009  0.333158221
     0.583384164  0.708271109  0.833299224
     0.583347317  0.958463978  0.333316758
     0.583347986  0.958389908  0.833289662
     0.750020593  0.208318793  0.333436438
     0.750015407  0.208343013  0.833438728
     0.749937173  0.458394287  0.333703177
     0.750060103  0.458332081  0.833557512
     0.749961242  0.708388780  0.333463701
     0.750018214  0.708335425  0.833399447
     0.750017869  0.958445891  0.333341933
     0.750013555  0.958348673  0.833365176
     0.916610128  0.208320510  0.333337154
     0.916653666  0.208324638  0.833334274
     0.916608922  0.458320784  0.333372547
     0.916703460  0.458328543  0.833393131
     0.916638876  0.708349474  0.333417043
     0.916690644  0.708301485  0.833355581
     0.916655540  0.958329016  0.333347417
     0.916671483  0.958316127  0.833361933
     0.999953358  0.166647460  0.166610682
     0.000003726  0.166642222  0.666650204
     0.999898942  0.416639657  0.166571453
     0.000055083  0.416643757  0.666637098
     0.000003603  0.666667074  0.166675800
     0.000083047  0.666621480  0.666649390
     0.000000829  0.916658394  0.166661721
     0.000034740  0.916624545  0.666682644
     0.166570699  0.166634658  0.166561555
     0.166651466  0.166675731  0.666626705
     0.166412906  0.416596044  0.166357340
     0.166755668  0.416629976  0.666509233
     0.166640878  0.666673326  0.166642774
     0.166938811  0.666496712  0.666472924
     0.166658146  0.916687906  0.166642784
     0.166699104  0.916653387  0.666681106
     0.333282419  0.166706431  0.166622434
     0.333355829  0.166791738  0.666605607
     0.332827744  0.416475815  0.166155760
     0.333690996  0.416725253  0.666228648
     0.333280904  0.666697352  0.166669596
     0.333841162  0.666316592  0.666314088
     0.333316391  0.916777171  0.166585391
     0.333354365  0.916710201  0.666630771
     0.499969300  0.166724407  0.166770981
     0.499976810  0.166891586  0.666569578
     0.499628399  0.416907713  0.167900356
     0.500622582  0.417326389  0.666903981
     0.499952629  0.667117814  0.166236489
     0.500168911  0.666447690  0.666352115
     0.499994553  0.916772142  0.166595517
     0.500008211  0.916733781  0.666607663
     0.666636749  0.166751541  0.166782385
     0.666718433  0.166700207  0.666754890
     0.666723260  0.416641521  0.166973370
     0.666714723  0.416698548  0.666819810
     0.666640965  0.666720986  0.166874512
     0.666492912  0.666478741  0.666585629
     0.666671998  0.916779219  0.166621997
     0.666671585  0.916733266  0.666644973
     0.833329392  0.166682244  0.166679739
     0.833367303  0.166651308  0.666711450
     0.833280176  0.416668610  0.166779482
     0.833410920  0.416654554  0.666785693
     0.833339530  0.666698468  0.166866228
     0.833290522  0.666614270  0.666685419
     0.833338427  0.916700030  0.166669067
     0.833364839  0.916674650  0.666696182
     0.083309985  0.041652119  0.166623972
     0.083350027  0.041647524  0.666674422
     0.083233033  0.291627986  0.166513490
     0.083332518  0.291644383  0.666576158
     0.083289127  0.541658317  0.166569302
     0.083522988  0.541615577  0.666581408
     0.083353178  0.791667221  0.166643425
     0.083420821  0.791591514  0.666639594
     0.249971428  0.041706745  0.166594218
     0.250003809  0.041708409  0.666623349
     0.249808989  0.291581391  0.166426885
     0.250018989  0.291700849  0.666512959
     0.249902548  0.541653883  0.166559500
     0.250755449  0.541348662  0.665729152
     0.249995022  0.791698261  0.166589855
     0.250102609  0.791589180  0.666591992
     0.416647008  0.041750078  0.166621304
     0.416661430  0.041769850  0.666614290
     0.416592740  0.291695711  0.166794467
     0.416755351  0.292226658  0.665864470
     0.416538979  0.541389744  0.167420899
     0.418602501  0.540755984  0.665112858
     0.416623868  0.791848193  0.166464180
     0.416714762  0.791648062  0.666570641
     0.583338338  0.041750558  0.166674298
     0.583331306  0.041781465  0.666627553
     0.583255397  0.291761890  0.167038450
     0.583464112  0.291867821  0.666743417
     0.583248534  0.541635068  0.167496114
     0.583187357  0.541039417  0.666986639
     0.583340084  0.791839339  0.166522912
     0.583359905  0.791679476  0.666600288
     0.749999932  0.041729510  0.166650100
     0.750033733  0.041680646  0.666660647
     0.749989622  0.291692020  0.166762508
     0.750045057  0.291666484  0.666762474
     0.749924241  0.541689055  0.166981030
     0.750021021  0.541525349  0.666802910
     0.749993733  0.791719017  0.166673457
     0.750004857  0.791672152  0.666657995
     0.916655494  0.041665732  0.166645122
     0.916681875  0.041644032  0.666685199
     0.916605500  0.291664462  0.166653585
     0.916679436  0.291643763  0.666664047
     0.916616959  0.541671073  0.166732433
     0.916771899  0.541640736  0.666748563
     0.916661112  0.791675876  0.166686812
     0.916683303  0.791629802  0.666673652
     0.999990302  0.999985606  0.124968259
     0.000020898  0.999961481  0.625015304
     0.999929975  0.249982585  0.124909744
     0.999991930  0.249972931  0.624952600
     0.999945009  0.500010036  0.124940904
     0.000117198  0.499996490  0.624978064
     0.000014556  0.750002975  0.124983340
     0.000061112  0.749966891  0.625000446
     0.166642719  0.000012282  0.124944637
     0.166663811  0.000001521  0.624988432
     0.166550766  0.249950510  0.124810919
     0.166645482  0.249990168  0.624907022
     0.166586654  0.499988388  0.124808125
     0.166830967  0.499926371  0.624724755
     0.166668641  0.750008751  0.124923348
     0.166783415  0.749895038  0.624914035
     0.333324358  0.000073793  0.124917140
     0.333341896  0.000066909  0.624956851
     0.333281697  0.250023270  0.124915792
     0.333347806  0.250113077  0.624796899
     0.333226667  0.499945802  0.124983679
     0.334699444  0.499415459  0.623603496
     0.333329174  0.750045561  0.124880312
     0.333434231  0.749929782  0.624851299
     0.499997301  0.000074297  0.124952402
     0.499997838  0.000073574  0.624960343
     0.499965619  0.250008357  0.125183485
     0.500018410  0.250330137  0.624857532
     0.499912577  0.500004957  0.125604882
     0.499974095  0.750219286  0.124565606
     0.500043816  0.749996159  0.624880702
     0.666665380  0.000075294  0.124959016
     0.666662174  0.000078744  0.624972636
     0.666610539  0.250079966  0.125147169
     0.666727777  0.249934551  0.625101737
     0.666590029  0.500003415  0.125387162
     0.666834975  0.499964306  0.625223261
     0.666649393  0.750054035  0.124995195
     0.666702650  0.750019357  0.624972295
     0.833340638  0.000023378  0.124977552
     0.833374735  0.999991883  0.625003973
     0.833301465  0.250014000  0.124995526
     0.833356906  0.249971964  0.625048539
     0.833275536  0.500023705  0.125129153
     0.833533746  0.500014860  0.625114272
     0.833346805  0.750022855  0.125040290
     0.833355411  0.749976557  0.625010992
     0.083275236  0.124975687  0.124913114
     0.083315274  0.124975024  0.624980279
     0.083174236  0.374968800  0.124757763
     0.083335103  0.374980206  0.624903008
     0.083332068  0.625001601  0.124911323
     0.083468434  0.624953502  0.624917528
     0.083333104  0.874996174  0.124969904
     0.083377605  0.874952822  0.625000420
     0.249956749  0.125025012  0.124912714
     0.249988476  0.125041958  0.624948334
     0.249713609  0.374896085  0.124497130
     0.250028476  0.374987688  0.624800170
     0.249945726  0.625021613  0.124931253
     0.250423116  0.624737430  0.624654711
     0.249997256  0.875045184  0.124928481
     0.250024303  0.875006398  0.624961392
     0.416654695  0.125071490  0.124953395
     0.416685374  0.125124114  0.624953274
     0.416538482  0.375040392  0.125253868
     0.416946397  0.376099391  0.624000927
     0.416623331  0.624966920  0.125259914
     0.417320418  0.624641538  0.624126165
     0.416648073  0.875118690  0.124838953
     0.416671390  0.875042688  0.624939124
     0.583312526  0.125061299  0.125048943
     0.583304284  0.125144143  0.624990098
     0.583169902  0.375120586  0.125717123
     0.583467933  0.375023178  0.625176094
     0.583283332  0.625035134  0.125218368
     0.583148008  0.624743392  0.624577016
     0.583337951  0.875110815  0.124874656
     0.583348390  0.875056194  0.624954819
     0.749981247  0.125054248  0.125024922
     0.750041850  0.124973013  0.625034453
     0.749975522  0.375009442  0.125012042
     0.750079387  0.374996264  0.625202560
     0.750029818  0.625058145  0.125256315
     0.749931871  0.624893932  0.625032692
     0.750002095  0.875051750  0.124974497
     0.750035579  0.875054778  0.624990372
     0.916646653  0.124993986  0.124957268
     0.916689779  0.124967734  0.625010387
     0.916594440  0.375007573  0.124962725
     0.916716041  0.374993299  0.625037077
     0.916676244  0.625022538  0.125067946
     0.916714873  0.624985519  0.625027155
     0.916679285  0.875001040  0.124992484
     0.916704662  0.874973063  0.625015260
     0.999981938  0.083275723  0.458340883
     0.999993406  0.083318168  0.958303098
     0.999909477  0.333279361  0.458309369
     0.999960749  0.333328527  0.958238382
     0.000008684  0.583333465  0.458326731
     0.000064532  0.583331528  0.958307539
     0.000029812  0.833308060  0.458360389
     0.000031070  0.833304944  0.958321486
     0.166571702  0.083276206  0.458305516
     0.166660839  0.083340242  0.958268372
     0.166339561  0.333177435  0.458184052
     0.166610708  0.333311229  0.958059063
     0.166631698  0.583225926  0.458185176
     0.166784697  0.583287984  0.958118300
     0.166703538  0.833300908  0.458302794
     0.166696614  0.833310444  0.958268236
     0.333299481  0.083413241  0.458293713
     0.333338522  0.083384907  0.958244356
     0.332606343  0.332603098  0.458116732
     0.333368856  0.333368912  0.958218425
     0.334173335  0.582824792  0.457651512
     0.333311716  0.583327087  0.958357328
     0.333115355  0.833662358  0.458267786
     0.333356173  0.833341137  0.958225767
     0.499973568  0.083451006  0.458362505
     0.500003962  0.083395496  0.958297778
     0.499830564  0.334642751  0.458211073
     0.500007422  0.333150911  0.958817468
     0.500034484  0.583306392  0.958479747
     0.499979113  0.833572072  0.458303146
     0.500003746  0.833390571  0.958154473
     0.666635377  0.083461371  0.458342591
     0.666668022  0.083359409  0.958338682
     0.666988295  0.332483410  0.458836660
     0.666622372  0.333363956  0.958607212
     0.666164644  0.583234062  0.458523226
     0.666927627  0.583427812  0.958835290
     0.666866203  0.833677882  0.458320478
     0.666671894  0.833356268  0.958278464
     0.833402115  0.083252350  0.458346024
     0.833332190  0.083333166  0.958328931
     0.833368364  0.333287212  0.458482072
     0.833326989  0.333332394  0.958320674
     0.833349367  0.583320649  0.458456309
     0.833409357  0.583362683  0.958494121
     0.833365421  0.833376018  0.458343095
     0.833359048  0.833328972  0.958328191
     0.083239901  0.208254653  0.458280559
     0.083313829  0.208323878  0.958241859
     0.083043642  0.458300162  0.458218914
     0.083360969  0.458332674  0.958205647
     0.083369773  0.708311387  0.458329664
     0.083411382  0.708299835  0.958257900
     0.083342444  0.958291112  0.458347509
     0.083354846  0.958316774  0.958321633
     0.249769456  0.208116279  0.458258746
     0.249998805  0.208364142  0.958247602
     0.248670977  0.458205995  0.457930463
     0.250060563  0.458331216  0.958154192
     0.250149876  0.708194136  0.458228897
     0.250067319  0.708298580  0.958225346
     0.249929268  0.958451528  0.458340728
     0.250008883  0.958356227  0.958303895
     0.416569886  0.208495925  0.458327736
     0.416667502  0.208420134  0.958255563
     0.416688774  0.458318816  0.958436231
     0.415963890  0.709244792  0.458178786
     0.416686380  0.708282421  0.958283042
     0.416634950  0.958468668  0.458310833
     0.416655018  0.958393162  0.958248065
     0.583244416  0.208651556  0.458392124
     0.583343638  0.208344229  0.958456440
     0.583402318  0.458309005  0.958723621
     0.583950565  0.709235475  0.458367519
     0.583367060  0.708320974  0.958320101
     0.583341568  0.958474391  0.458322082
     0.583344641  0.958391633  0.958264654
     0.750138235  0.208045111  0.458451850
     0.749985101  0.208352760  0.958414113
     0.750974741  0.458545662  0.458848034
[...]
 217      -0.010     0.010     0.013       1.483
 218       0.057     0.010     0.064      -0.738
 219       1.162     0.935     1.223      -0.186
 220      -0.023    -0.014    -0.054      -0.165
 221       0.088    -0.000     0.099      -0.888
 222       0.005     0.001    -0.006       0.699
 223       0.007     0.005    -0.009       0.205
 224      -0.006    -0.001    -0.017      -0.299
 225       0.004     0.001    -0.019       0.190
 226      -0.548    -0.545    -0.797      -0.004
 227       0.136     0.052     0.173      -0.487
 228       0.009    -0.009     0.015      -1.237
 229       0.029     0.020    -0.030       0.277
 230       0.004     0.001    -0.005       0.584
 231       0.004     0.004    -0.008       0.112
 232       0.004    -0.003     0.005      -1.391
 233       0.004     0.003    -0.008       0.095
 234       0.018    -0.000     0.028      -0.648
 235       0.020    -0.012     0.029      -1.117
 236      -0.004     0.003    -0.012      -0.586
 237       0.009    -0.009     0.013      -1.433
 238       0.002     0.001    -0.004       0.151
 239       0.002    -0.000    -0.006       0.311
 240      -0.002     0.000     0.002       0.846
 241      -0.002    -0.000     0.003       0.648
 242       0.004     0.001    -0.004       0.787
 243       0.005     0.004    -0.007       0.225
 244       0.005    -0.002    -0.009       0.828
 245       0.008     0.003    -0.015       0.286
 246       0.001     0.000    -0.002       0.634
 247       0.003    -0.001    -0.005       0.717
 248       0.002     0.001    -0.003       0.141
 249       0.002     0.000    -0.006       0.291
 250       0.006     0.000    -0.006       0.902
 251      -0.012     0.011     0.012       1.902
 252      -0.008     0.000     0.011       0.734
 253       0.055     0.014     0.065      -0.628
 254      -0.003     0.001     0.003       1.131
 255       0.008    -0.004     0.008      -1.480
 256       0.004     0.001    -0.005       0.583
 257       0.005     0.004    -0.008       0.155
 258       0.009    -0.009     0.015      -1.213
 259       0.029     0.021    -0.030       0.272
 260       0.018     0.007    -0.035       0.288
 261       0.414    -0.127     0.448      -1.209
 262      -0.005     0.000     0.006       0.894
 263      -0.013     0.011     0.014       1.732
 264       0.005     0.001    -0.007       0.568
 265       0.006     0.004    -0.009       0.228
 266       0.016    -0.013     0.023      -1.288
 267       0.086     0.057     0.110      -0.262
 268       0.063     0.015     0.069      -0.695
 269       1.072     0.842     1.138      -0.202
 270      -0.006     0.001     0.007       0.971
 271       0.013     0.011    -0.014       0.125
 272       0.002     0.000    -0.006       0.296
 273       0.002     0.001    -0.008       0.058
 274       0.019     0.001     0.025      -0.709
 275       0.019    -0.012     0.025      -1.231
 276       0.016    -0.013     0.023      -1.267
 277       0.086     0.057     0.112      -0.261
 278      -0.004     0.002     0.006       1.024
 279       0.002     0.001    -0.015       0.018
 280       0.002     0.001    -0.002       0.441
 281       0.003     0.000    -0.004       0.630
 282       0.006     0.001    -0.007       0.629
 283      -0.008     0.006     0.009       1.582
 284      -0.006     0.002    -0.017      -0.438
 285       0.005    -0.001    -0.022       0.267
 286       0.001     0.001    -0.002       0.066
 287       0.004     0.001    -0.004       0.625
 288       0.002     0.000    -0.002       0.811
 289       0.003    -0.000    -0.003       1.095
 290      -0.004    -0.001    -0.011      -0.242
 291      -0.005    -0.004    -0.014      -0.073
 292       0.006    -0.001    -0.009       0.879
 293       0.011    -0.009     0.016      -1.225
 294      -0.001     0.000    -0.004      -0.252
 295       0.004     0.001    -0.004       0.706
 296       0.002     0.000    -0.002       0.520
 297       0.002    -0.000    -0.004       0.708
 298       0.003    -0.001    -0.004       0.966
 299      -0.001    -0.000    -0.014      -0.068
 300      -0.006    -0.002     0.009       0.390
 301       0.017     0.013    -0.017       0.237
 302       0.002    -0.000    -0.003       0.664
 303       0.004     0.003    -0.008       0.228
 304       0.003     0.001    -0.004       0.334
 305       0.003     0.002    -0.007       0.101
 306       0.004    -0.003    -0.007       0.877
 307      -0.009    -0.009    -0.040      -0.015
 308       0.015     0.005    -0.021       0.502
 309      -0.314    -0.279    -0.492      -0.072
 310      -0.004    -0.001     0.005       0.480
 311       0.005     0.004    -0.021       0.072
 312       0.004     0.001    -0.006       0.571
 313       0.005     0.003    -0.009       0.188
 314      -0.048    -0.037    -0.058      -0.193
 315       0.041     0.013     0.064      -0.450
 316       0.011     0.006    -0.073       0.070
 317       0.007    -0.002    -0.010       0.888
 318      -0.064    -0.058    -0.120      -0.047
 319       0.004     0.001    -0.005       0.567
 320       0.004     0.003    -0.009       0.095
 321       0.006     0.002    -0.013       0.314
 322       0.024    -0.005     0.041      -0.723
 323      -0.030    -0.026    -0.079      -0.039
 324       0.177    -0.033    -0.195       1.073
 325      -0.004     0.003    -0.009      -0.823
 326      -0.007    -0.006    -0.039      -0.027
 327       0.002     0.001    -0.003       0.146
 328      -0.004     0.003     0.005       1.457
 329      -0.005    -0.001    -0.020      -0.223
 330      -0.005     0.001    -0.021      -0.299
 331       0.008     0.001    -0.013       0.542
 332       0.025    -0.007     0.044      -0.744
 333      -0.003     0.002     0.005       0.877
 334       0.006     0.005    -0.009       0.139
 335      -0.001     0.001    -0.002      -1.232
 336      -0.002     0.002    -0.003      -1.235
 337       0.005    -0.002    -0.007       1.030
 338      -0.003    -0.001    -0.020      -0.117
 339       0.003    -0.002    -0.007       0.780
 340       0.007     0.005    -0.010       0.167
 341       0.001    -0.000    -0.002       1.041
 342      -0.003    -0.001     0.003       0.655
 343       0.001     0.001    -0.003       0.207
 344       0.002     0.000    -0.008       0.219
 345       0.007    -0.002    -0.008       1.185
 346      -0.069    -0.062    -0.122      -0.056
 347      -0.020    -0.011    -0.035      -0.280
 348      -0.056    -0.050    -0.094      -0.064
 349       0.002     0.001    -0.003       0.279
 350       0.004     0.002    -0.006       0.308
 351      -0.003     0.002     0.007       0.790
 352       0.007     0.005    -0.011       0.137
 353      -0.012    -0.004    -0.037      -0.218
 354      -0.577    -0.567    -0.826      -0.012
 355       0.009     0.001    -0.024       0.338
 356      -0.309    -0.262    -0.474      -0.100
 357       0.004     0.000    -0.005       0.864
 358       0.002     0.000    -0.016       0.077
 359      -0.005     0.001     0.006       1.164
 360       0.008     0.005    -0.013       0.200
 361      -0.051    -0.047    -0.100      -0.038
 362       0.160    -0.048    -0.230       0.906
 363      -0.018    -0.010    -0.044      -0.185
 364      -0.537    -0.525    -0.785      -0.016
 365       0.005    -0.000    -0.006       0.895
 366       0.003     0.001    -0.015       0.124
 367       0.004     0.001    -0.005       0.554
 368       0.010    -0.004     0.011      -1.209
 369      -0.156    -0.141    -0.259      -0.059
 370      -0.064    -0.005    -0.102      -0.587
 371      -0.053    -0.043    -0.063      -0.157
 372       0.028     0.000     0.051      -0.547
 373       0.004     0.001    -0.004       0.615
 374       0.003     0.003    -0.009       0.054
 375       0.001     0.000    -0.004       0.099
 376       0.002    -0.000    -0.006       0.325
 377      -0.006     0.001    -0.021      -0.359
 378      -0.008     0.000    -0.025      -0.321
 379      -0.005     0.000     0.005       1.013
 380       0.007     0.004    -0.014       0.226
 381       0.001     0.000    -0.002       0.355
 382       0.003     0.000    -0.003       0.895
 383       0.002    -0.001    -0.004       0.873
 384       0.001    -0.000    -0.002       0.908
 385      -0.004    -0.001    -0.022      -0.131
 386      -0.005     0.001    -0.009      -0.692
 387      -0.008    -0.007    -0.027      -0.051
 388      -0.005     0.000     0.007       0.764
 389      -0.003     0.002    -0.004      -1.117
 390       0.001    -0.001    -0.001       1.481
 391      -0.003     0.000     0.004       0.896
 392       0.002     0.000    -0.002       0.616
 393       0.004     0.002    -0.016       0.160
 394      -0.004     0.003    -0.008      -0.837
 395       0.003    -0.000    -0.022       0.135
 396      -0.009    -0.001    -0.018      -0.395
 397      -0.003     0.002     0.004       1.152
 398       0.001     0.001    -0.003       0.136
 399       0.004     0.003    -0.008       0.094
 400       0.003     0.001    -0.004       0.470
 401       0.011     0.005    -0.042       0.147
 402       0.010     0.003    -0.011       0.676
 403      -0.035     0.034     0.044       1.572
 404      -0.163    -0.152    -0.262      -0.042
 405       0.006     0.005    -0.009       0.090
 406       0.004     0.001    -0.005       0.572
 407       0.008     0.006    -0.009       0.185
 408       0.005     0.000    -0.006       0.842
 409      -0.593    -0.580    -0.836      -0.015
 410      -0.061    -0.052    -0.146      -0.064
 411      -0.063    -0.061    -0.156      -0.013
 412       0.007     0.005    -0.014       0.166
 413       0.004    -0.003    -0.009       0.756
 414      -0.001    -0.000    -0.018      -0.044
 415      -0.004     0.001     0.005       0.982
 416      -1.726    -1.698    -2.468      -0.011
 417      -0.024    -0.016    -0.048      -0.153
 418      -0.585    -0.570    -0.826      -0.018
 419      -0.068    -0.058    -0.155      -0.064
 420       0.006     0.005    -0.012       0.130
 421      -0.005     0.001     0.005       1.062
 422      -0.014    -0.011    -0.025      -0.129
 423       0.002     0.001    -0.003       0.411
 424      -0.103    -0.100    -0.191      -0.018
 425      -0.029    -0.017    -0.052      -0.240
 426      -0.019    -0.018    -0.062      -0.023
 427       0.005    -0.000     0.015      -0.372
 428      -0.001     0.001    -0.010      -0.162
 429       0.002     0.001    -0.003       0.350
 430       0.002    -0.002    -0.007       0.594
 431      -0.002    -0.001    -0.005      -0.114
 432       0.004    -0.000    -0.028       0.152
 433       0.007    -0.000    -0.008       1.015
 434       0.004     0.002    -0.006       0.318
 435       0.001    -0.001    -0.005       0.366
 436       0.003    -0.001    -0.003       1.134
 437       0.002     0.000    -0.002       0.800
 438       0.005     0.004    -0.009       0.136
 439       0.003     0.001    -0.004       0.705
 440       0.025     0.017    -0.030       0.282
 441      -0.010    -0.000     0.012       0.834
 442       0.012    -0.008     0.013      -1.536
 443      -0.003     0.001    -0.011      -0.333
 444       0.003     0.001    -0.005       0.425
 445       0.002     0.001    -0.003       0.132
 446      -0.004    -0.003    -0.035      -0.039
 447      -0.006     0.002    -0.012      -0.634
 448      -0.073    -0.069    -0.164      -0.027
 449       0.039    -0.005     0.047      -0.945
 450      -0.009     0.002     0.011       1.026
 451       0.003     0.003    -0.009       0.086
 452       0.004     0.001    -0.005       0.528
 453      -0.015    -0.013    -0.058      -0.038
 454       0.006     0.000     0.015      -0.386
 455      -0.079    -0.076    -0.187      -0.013
 456       0.019     0.013    -0.036       0.180
 457       0.010     0.003    -0.011       0.714
 458       0.005     0.003    -0.010       0.154
 459       0.005     0.001    -0.006       0.644
 460      -0.116    -0.110    -0.187      -0.037
 461      -0.004    -0.002     0.005       0.266
 462      -1.751    -1.723    -2.514      -0.011
 463      -0.023    -0.013    -0.046      -0.229
 464      -0.006    -0.005    -0.037      -0.035
 465      -0.004     0.002    -0.011      -0.641
 466       0.004     0.003    -0.007       0.116
 467       0.003     0.001    -0.004       0.428
 468      -0.005    -0.004    -0.020      -0.062
 469      -0.003     0.000    -0.006      -0.491
 470      -0.105    -0.098    -0.186      -0.042
 471      -0.006    -0.003     0.008       0.434
 472      -0.007     0.005     0.007       1.760
 473       0.003    -0.000    -0.004       0.749
 474       0.003    -0.000    -0.005       0.711
 475       0.002     0.001    -0.002       0.368
 476      -0.002     0.000    -0.008      -0.296
 477      -0.001     0.001    -0.004      -0.432
 478      -0.003     0.003    -0.020      -0.281
 479       0.007     0.000    -0.010       0.626
 480       0.005     0.002    -0.005       0.516
 481       0.005     0.002    -0.006       0.443
 482      -0.002    -0.000     0.002       0.812
 483      -0.002    -0.000     0.003       0.719
 484       0.002    -0.000    -0.004       0.610
 485       0.002     0.000    -0.005       0.285
 486       0.008     0.001    -0.012       0.574
 487      -0.005     0.002    -0.022      -0.314
 488      -0.006    -0.002    -0.014      -0.303
 489       0.007     0.004    -0.010       0.293
 490       0.002     0.000    -0.003       0.646
 491       0.002     0.000    -0.004       0.519
 492       0.002     0.001    -0.011       0.061
 493       0.005     0.004    -0.008       0.204
 494      -0.022     0.021     0.030       1.430
 495      -0.047    -0.023    -0.094      -0.252
 496       0.013     0.007    -0.014       0.426
 497       0.010     0.006    -0.032       0.140
 498       0.003     0.002    -0.005       0.193
 499       0.003     0.002    -0.006       0.172
 500      -0.017    -0.013    -0.034      -0.107
 501       0.008     0.003    -0.012       0.434
 502      -0.415    -0.357    -0.555      -0.104
 503      -1.762    -1.736    -2.503      -0.011
 504       0.048     0.000     0.055      -0.870
 505      -0.049    -0.025    -0.096      -0.241
 506       0.005     0.002    -0.008       0.383
 507       0.003    -0.000    -0.011       0.272
 508       0.006     0.004    -0.014       0.131
 509       0.006    -0.005     0.011      -1.078
 510      -2.172    -2.151    -3.082      -0.007
 511      -0.051     0.004    -0.102      -0.546
 512      -0.076    -0.070    -0.123      -0.050
 513      -0.027    -0.022    -0.065      -0.082
 514       0.004     0.002    -0.007       0.289
 515       0.004     0.002    -0.007       0.301
 516      -0.003    -0.002    -0.018      -0.054
 517       0.003     0.001    -0.006       0.300
 518      -0.086    -0.079    -0.167      -0.039
 519      -0.012    -0.005     0.016       0.428
 520      -0.021    -0.020    -0.038      -0.044
 521       0.007     0.003    -0.011       0.401
 522       0.003     0.002    -0.004       0.213
 523       0.002     0.001    -0.004       0.240
 524       0.002    -0.001    -0.003       1.165
 525      -0.002    -0.000     0.002       0.835
 526       0.002    -0.002    -0.010       0.399
 527      -0.005    -0.003    -0.012      -0.152
 528       0.008     0.002    -0.009       0.618
 529       0.005    -0.001    -0.014       0.427
 530       0.002    -0.000    -0.002       1.036
 531       0.003     0.000    -0.003       0.851
 532       0.003     0.001    -0.004       0.367
 533       0.003     0.002    -0.004       0.300
 534       0.006     0.002    -0.011       0.321
 535      -0.007    -0.002    -0.023      -0.208
 536      -0.013     0.007     0.016       1.245
 537      -0.007    -0.000    -0.048      -0.142
 538       0.003     0.002    -0.005       0.130
 539       0.001     0.001    -0.010       0.011
 540       0.005     0.003    -0.006       0.290
 541       0.005     0.002    -0.007       0.318
 542      -0.071    -0.064    -0.117      -0.061
 543      -0.027    -0.021    -0.064      -0.087
 544       0.057    -0.020     0.070      -1.104
 545      -2.285    -2.268    -3.167      -0.006
 546       0.007     0.003    -0.009       0.420
 547      -0.005    -0.000    -0.023      -0.217
 548       0.006     0.003    -0.007       0.337
 549       0.006     0.002    -0.007       0.428
 550      -0.047    -0.030    -0.093      -0.179
 551       0.023    -0.005     0.041      -0.699
 552      -0.403    -0.337    -0.536      -0.123
 553      -1.815    -1.788    -2.573      -0.011
 554       0.008     0.003    -0.012       0.366
 555      -0.005     0.000    -0.023      -0.225
 556       0.004     0.003    -0.006       0.143
 557       0.004     0.002    -0.005       0.263
 558      -0.086    -0.082    -0.168      -0.023
 559      -0.011    -0.004     0.015       0.474
 560      -0.046    -0.031    -0.094      -0.157
 561       0.023    -0.006     0.042      -0.687
 562       0.001    -0.001    -0.013       0.128
 563       0.004     0.003    -0.009       0.189
 564       0.002     0.000    -0.004       0.487
 565       0.002     0.001    -0.003       0.547
 566      -0.019    -0.017    -0.048      -0.055
 567      -0.016    -0.009    -0.025      -0.302
 568       0.007     0.004    -0.014       0.230
 569      -0.007     0.005     0.013       0.974
 570       0.003     0.001    -0.003       0.474
 571       0.003     0.001    -0.004       0.448
 572       0.638     0.560     0.761      -0.102
 573      -0.242    -0.035     0.400       0.517
 574     -14.790   -14.747   -25.744      -0.002
 575     -14.753   -14.714   -25.822      -0.002
 576       0.579     0.512     0.709      -0.095
 ---------------------------------------------------------------------



--------------------------------------------------------------------------------------------------------


     LOOP+:  cpu time  994.1799: real time  997.0153
    4ORBIT:  cpu time    0.0000: real time    0.0000

 total amount of memory used by VASP MPI-rank0   238700. kBytes
=======================================================================

   base      :      30000. kBytes
   nonlr-proj:       9223. kBytes
   fftplans  :      15014. kBytes
   grid      :      46644. kBytes
   one-center:        294. kBytes
   wavefun   :     137525. kBytes
 
  
  
 General timing and accounting informations for this job:
 ========================================================
  
                  Total CPU time used (sec):      969.698
                            User time (sec):      965.639
                          System time (sec):        4.059
                         Elapsed time (sec):      980.563
  
                   Maximum memory used (kb):      423240.
                   Average memory used (kb):          N/A
  
                          Minor page faults:      1033008
                          Major page faults:           16
                 Voluntary context switches:        10959
    4ORBIT:  cpu time    0.0000: real time    0.0000

 total amount of memory used by VASP MPI-rank0   238700. kBytes
=======================================================================

   base      :      30000. kBytes
   nonlr-proj:       9223. kBytes
   fftplans  :      15014. kBytes
   grid      :      46644. kBytes
   one-center:        294. kBytes
   wavefun   :     137525. kBytes
 
  
  
 General timing and accounting informations for this job:
 ========================================================
  
                  Total CPU time used (sec):     1024.280
                            User time (sec):     1020.929
                          System time (sec):        3.350
                         Elapsed time (sec):     1027.813
  
                   Maximum memory used (kb):      431764.
                   Average memory used (kb):          N/A
  
                          Minor page faults:       833065
                          Major page faults:           46
                 Voluntary context switches:        11043
