 vasp.6.2.0 18Jan21 (build Apr 30 2021 19:00:08) gamma-only                     
  
 executed on             LinuxIFC date 2022.12.30  13:23:40
 running on   24 total cores
 distrk:  each k-point on   24 cores,    1 groups
 distr:  one band on NCORE=   6 cores,    4 groups


--------------------------------------------------------------------------------------------------------


 INCAR:
   SYSTEM = Diamond
   PREC = Normal
   ISTART = 0
   ICHARG = 11
   ISPIN = 2
   MAGMOM = 572*0.0 1*2.0 2*2.0 1*3
   NPAR = 4
   NELECT = 2303
   LHYPERFINE = T
   LEFG = T
   ENCUT = 700
   NELM = 1000
   NELMIN = 4
   EDIFF = 1E-06
   LREAL = Auto
   ALGO = Normal
   EDIFFG = -1E-02
   NSW = 0
   IBRION = 2
   ISIF = 2
   ISYM = 2
   POTIM = 0.5
   ISMEAR = 0
   SIGMA = 0.05
   NEDOS = 1000
   LWAVE = F
   LCHARG = F
   LVHAR = F
   LELF = F

 POTCAR:    PAW_PBE C 08Apr2002                   
 POTCAR:    PAW_PBE H 15Jun2001                   
 POTCAR:    PAW_PBE C 08Apr2002                   
 POTCAR:    PAW_PBE N 08Apr2002                   
 POTCAR:    PAW_PBE C 08Apr2002                   
   VRHFIN =C: s2p2                                                                                  
   LEXCH  = PE                                                                                      
   EATOM  =   147.1560 eV,   10.8157 Ry                                                             
                                                                                                    
   TITEL  = PAW_PBE C 08Apr2002                                                                     
   LULTRA =        F    use ultrasoft PP ?                                                          
   IUNSCR =        1    unscreen: 0-lin 1-nonlin 2-no                                               
   RPACOR =    1.200    partial core radius                                                         
   POMASS =   12.011; ZVAL   =    4.000    mass and valenz                                          
   RCORE  =    1.500    outmost cutoff radius                                                       
   RWIGS  =    1.630; RWIGS  =    0.863    wigner-seitz radius (au A)                               
   ENMAX  =  400.000; ENMIN  =  300.000 eV                                                          
   ICORE  =        2    local potential                                                             
   LCOR   =        T    correct aug charges                                                         
   LPAW   =        T    paw PP                                                                      
   EAUG   =  644.873                                                                                
   DEXC   =    0.000                                                                                
   RMAX   =    1.529    core radius for proj-oper                                                   
   RAUG   =    1.300    factor for augmentation sphere                                              
   RDEP   =    1.501    radius for radial grids                                                     
   RDEPT  =    1.300    core radius for aug-charge                                                  
                                                                                                    
   Atomic configuration                                                                             
    4 entries                                                                                       
     n  l   j            E        occ.                                                              
     1  0  0.50      -273.3789   2.0000                                                             
     2  0  0.50       -13.7508   2.0000                                                             
     2  1  0.50        -5.2854   2.0000                                                             
     3  2  1.50        -5.4423   0.0000                                                             
   Description                                                                                      
     l       E           TYP  RCUT    TYP  RCUT                                                     
     0    -13.7508458     23  1.200                                                                 
     0     -8.2022199     23  1.200                                                                 
     1     -5.2854383     23  1.500                                                                 
     1     34.0145650     23  1.500                                                                 
     2     -5.4423304      7  1.500                                                                 
  local pseudopotential read in
  partial core-charges read in
  partial kinetic energy density read in
  atomic valenz-charges read in
  non local Contribution for L=           0  read in
    real space projection operators read in
  non local Contribution for L=           0  read in
    real space projection operators read in
  non local Contribution for L=           1  read in
    real space projection operators read in
  non local Contribution for L=           1  read in
    real space projection operators read in
    PAW grid and wavefunctions read in
 
   number of l-projection  operators is LMAX  =           4
   number of lm-projection operators is LMMAX =           8
 
 POTCAR:    PAW_PBE H 15Jun2001                   
   VRHFIN =H: ultrasoft test                                                                        
   LEXCH  = PE                                                                                      
   EATOM  =    12.4884 eV,    0.9179 Ry                                                             
                                                                                                    
   TITEL  = PAW_PBE H 15Jun2001                                                                     
   LULTRA =        F    use ultrasoft PP ?                                                          
   IUNSCR =        0    unscreen: 0-lin 1-nonlin 2-no                                               
   RPACOR =    0.000    partial core radius                                                         
   POMASS =    1.000; ZVAL   =    1.000    mass and valenz                                          
   RCORE  =    1.100    outmost cutoff radius                                                       
   RWIGS  =    0.700; RWIGS  =    0.370    wigner-seitz radius (au A)                               
   ENMAX  =  250.000; ENMIN  =  200.000 eV                                                          
   RCLOC  =    0.701    cutoff for local pot                                                        
   LCOR   =        T    correct aug charges                                                         
   LPAW   =        T    paw PP                                                                      
   EAUG   =  400.000                                                                                
   RMAX   =    1.123    core radius for proj-oper                                                   
   RAUG   =    1.200    factor for augmentation sphere                                              
   RDEP   =    1.112    radius for radial grids                                                     
   RDEPT  =    0.926    core radius for aug-charge                                                  
                                                                                                    
   Atomic configuration                                                                             
    2 entries                                                                                       
     n  l   j            E        occ.                                                              
     1  0  0.50        -6.4927   1.0000                                                             
     2  1  0.50        -3.4015   0.0000                                                             
   Description                                                                                      
     l       E           TYP  RCUT    TYP  RCUT                                                     
     0     -6.4927494     23  1.100                                                                 
     0      6.8029130     23  1.100                                                                 
     1     -4.0817478     23  1.100                                                                 
  local pseudopotential read in
  atomic valenz-charges read in
  non local Contribution for L=           0  read in
    real space projection operators read in
  non local Contribution for L=           0  read in
    real space projection operators read in
  non local Contribution for L=           1  read in
    real space projection operators read in
    PAW grid and wavefunctions read in
 
   number of l-projection  operators is LMAX  =           3
   number of lm-projection operators is LMMAX =           5
 
 POTCAR:    PAW_PBE C 08Apr2002                   
   VRHFIN =C: s2p2                                                                                  
   LEXCH  = PE                                                                                      
   EATOM  =   147.1560 eV,   10.8157 Ry                                                             
                                                                                                    
   TITEL  = PAW_PBE C 08Apr2002                                                                     
   LULTRA =        F    use ultrasoft PP ?                                                          
   IUNSCR =        1    unscreen: 0-lin 1-nonlin 2-no                                               
   RPACOR =    1.200    partial core radius                                                         
   POMASS =   12.011; ZVAL   =    4.000    mass and valenz                                          
   RCORE  =    1.500    outmost cutoff radius                                                       
   RWIGS  =    1.630; RWIGS  =    0.863    wigner-seitz radius (au A)                               
   ENMAX  =  400.000; ENMIN  =  300.000 eV                                                          
   ICORE  =        2    local potential                                                             
   LCOR   =        T    correct aug charges                                                         
   LPAW   =        T    paw PP                                                                      
   EAUG   =  644.873                                                                                
   DEXC   =    0.000                                                                                
   RMAX   =    1.529    core radius for proj-oper                                                   
   RAUG   =    1.300    factor for augmentation sphere                                              
   RDEP   =    1.501    radius for radial grids                                                     
   RDEPT  =    1.300    core radius for aug-charge                                                  
                                                                                                    
   Atomic configuration                                                                             
    4 entries                                                                                       
     n  l   j            E        occ.                                                              
     1  0  0.50      -273.3789   2.0000                                                             
     2  0  0.50       -13.7508   2.0000                                                             
     2  1  0.50        -5.2854   2.0000                                                             
     3  2  1.50        -5.4423   0.0000                                                             
   Description                                                                                      
     l       E           TYP  RCUT    TYP  RCUT                                                     
     0    -13.7508458     23  1.200                                                                 
     0     -8.2022199     23  1.200                                                                 
     1     -5.2854383     23  1.500                                                                 
     1     34.0145650     23  1.500                                                                 
     2     -5.4423304      7  1.500                                                                 
  local pseudopotential read in
  partial core-charges read in
  partial kinetic energy density read in
  atomic valenz-charges read in
  non local Contribution for L=           0  read in
    real space projection operators read in
  non local Contribution for L=           0  read in
    real space projection operators read in
  non local Contribution for L=           1  read in
    real space projection operators read in
  non local Contribution for L=           1  read in
    real space projection operators read in
    PAW grid and wavefunctions read in
 
   number of l-projection  operators is LMAX  =           4
   number of lm-projection operators is LMMAX =           8
 
 POTCAR:    PAW_PBE N 08Apr2002                   
   VRHFIN =N: s2p3                                                                                  
   LEXCH  = PE                                                                                      
   EATOM  =   264.5486 eV,   19.4438 Ry                                                             
                                                                                                    
   TITEL  = PAW_PBE N 08Apr2002                                                                     
   LULTRA =        F    use ultrasoft PP ?                                                          
   IUNSCR =        1    unscreen: 0-lin 1-nonlin 2-no                                               
   RPACOR =    1.200    partial core radius                                                         
   POMASS =   14.001; ZVAL   =    5.000    mass and valenz                                          
   RCORE  =    1.500    outmost cutoff radius                                                       
   RWIGS  =    1.400; RWIGS  =    0.741    wigner-seitz radius (au A)                               
   ENMAX  =  400.000; ENMIN  =  300.000 eV                                                          
   ICORE  =        2    local potential                                                             
   LCOR   =        T    correct aug charges                                                         
   LPAW   =        T    paw PP                                                                      
   EAUG   =  627.112                                                                                
   DEXC   =    0.000                                                                                
   RMAX   =    1.529    core radius for proj-oper                                                   
   RAUG   =    1.300    factor for augmentation sphere                                              
   RDEP   =    1.514    radius for radial grids                                                     
   RDEPT  =    1.338    core radius for aug-charge                                                  
                                                                                                    
   Atomic configuration                                                                             
    4 entries                                                                                       
     n  l   j            E        occ.                                                              
     1  0  0.50      -384.7179   2.0000                                                             
     2  0  0.50       -18.5828   2.0000                                                             
     2  1  0.50        -7.0898   3.0000                                                             
     3  2  1.50        -6.8029   0.0000                                                             
   Description                                                                                      
     l       E           TYP  RCUT    TYP  RCUT                                                     
     0    -18.5828119     23  1.200                                                                 
     0    -13.5018863     23  1.200                                                                 
     1     -7.0897853     23  1.500                                                                 
     1      9.5240782     23  1.500                                                                 
     2     -6.8029130      7  1.500                                                                 
  local pseudopotential read in
  partial core-charges read in
  partial kinetic energy density read in
  atomic valenz-charges read in
  non local Contribution for L=           0  read in
    real space projection operators read in
  non local Contribution for L=           0  read in
    real space projection operators read in
  non local Contribution for L=           1  read in
    real space projection operators read in
  non local Contribution for L=           1  read in
    real space projection operators read in
    PAW grid and wavefunctions read in
 
   number of l-projection  operators is LMAX  =           4
   number of lm-projection operators is LMMAX =           8
 
 Optimization of the real space projectors (new method)

 maximal supplied QI-value         = 25.13
 optimisation between [QCUT,QGAM] = [ 13.32, 26.89] = [ 49.69,202.52] Ry 
 Optimized for a Real-space Cutoff    1.01 Angstroem

   l    n(q)    QCUT    max X(q) W(low)/X(q) W(high)/X(q)  e(spline) 
   0      8    13.321   115.676    0.29E-03    0.42E-03    0.11E-06
   0      8    13.321    87.132    0.29E-03    0.42E-03    0.11E-06
   1      8    13.321     4.429    0.39E-03    0.33E-03    0.98E-07
   1      8    13.321     2.733    0.30E-03    0.26E-03    0.97E-07
 Optimization of the real space projectors (new method)

 maximal supplied QI-value         = 34.20
 optimisation between [QCUT,QGAM] = [ 13.34, 27.02] = [ 49.83,204.46] Ry 
 Optimized for a Real-space Cutoff    0.93 Angstroem

   l    n(q)    QCUT    max X(q) W(low)/X(q) W(high)/X(q)  e(spline) 
   0      7    13.340    19.460    0.47E-03    0.72E-04    0.17E-06
   0      7    13.340    12.209    0.45E-03    0.63E-04    0.16E-06
   1      7    13.340     4.655    0.21E-03    0.61E-03    0.12E-06
 Optimization of the real space projectors (new method)

 maximal supplied QI-value         = 25.13
 optimisation between [QCUT,QGAM] = [ 13.32, 26.89] = [ 49.69,202.52] Ry 
 Optimized for a Real-space Cutoff    1.01 Angstroem

   l    n(q)    QCUT    max X(q) W(low)/X(q) W(high)/X(q)  e(spline) 
   0      8    13.321   115.676    0.29E-03    0.42E-03    0.11E-06
   0      8    13.321    87.132    0.29E-03    0.42E-03    0.11E-06
   1      8    13.321     4.429    0.39E-03    0.33E-03    0.98E-07
   1      8    13.321     2.733    0.30E-03    0.26E-03    0.97E-07
 Optimization of the real space projectors (new method)

 maximal supplied QI-value         = 25.13
 optimisation between [QCUT,QGAM] = [ 13.32, 26.89] = [ 49.69,202.52] Ry 
 Optimized for a Real-space Cutoff    1.01 Angstroem

   l    n(q)    QCUT    max X(q) W(low)/X(q) W(high)/X(q)  e(spline) 
   0      8    13.321    79.467    0.28E-03    0.38E-03    0.11E-06
   0      8    13.321    66.151    0.27E-03    0.38E-03    0.11E-06
   1      8    13.321    23.070    0.40E-03    0.78E-03    0.29E-06
   1      8    13.321    16.668    0.40E-03    0.79E-03    0.30E-06
  PAW_PBE C 08Apr2002                   :
 energy of atom  1       EATOM= -147.1560
 kinetic energy error for atom=    0.0032 (will be added to EATOM!!)
  PAW_PBE H 15Jun2001                   :
 energy of atom  2       EATOM=  -12.4884
 kinetic energy error for atom=    0.0002 (will be added to EATOM!!)
  PAW_PBE C 08Apr2002                   :
 energy of atom  3       EATOM= -147.1560
 kinetic energy error for atom=    0.0032 (will be added to EATOM!!)
  PAW_PBE N 08Apr2002                   :
 energy of atom  4       EATOM= -264.5486
 kinetic energy error for atom=    0.0061 (will be added to EATOM!!)
 
 
 POSCAR: Autosave
  positions in direct lattice
  velocities in cartesian coordinates
 exchange correlation table for  LEXCH =        8
   RHO(1)=    0.500       N(1)  =     2000
   RHO(2)=  100.500       N(2)  =     4000
 


--------------------------------------------------------------------------------------------------------


 ion  position               nearest neighbor table
   1  0.000  0.000  0.000- 285 1.55 475 1.55 435 1.55 381 1.55
   2  0.000  0.000  0.500- 286 1.55 380 1.55 474 1.55 434 1.55
   3  0.000  0.250  0.000- 287 1.55 383 1.55 469 1.55 429 1.55
   4  0.000  0.250  0.500- 288 1.55 382 1.55 468 1.55 428 1.55
   5  0.000  0.500  1.000- 289 1.55 385 1.55 471 1.55 431 1.55
   6  0.000  0.500  0.500- 290 1.55 384 1.55 470 1.55 430 1.55
   7  0.000  0.750  0.000- 291 1.55 473 1.55 433 1.55 387 1.55
   8  0.000  0.750  0.500- 292 1.55 386 1.55 472 1.55 432 1.55
   9  0.167  0.000  0.000- 293 1.55 435 1.55 389 1.55 443 1.55
  10  0.167  0.000  0.500- 434 1.55 294 1.55 388 1.55 442 1.55
  11  0.167  0.250  1.000- 429 1.55 295 1.55 437 1.55 391 1.55
  12  0.167  0.250  0.500- 296 1.55 436 1.55 390 1.55 428 1.55
  13  0.167  0.500  1.000- 297 1.55 431 1.55 393 1.55 439 1.55
  14  0.167  0.500  0.500- 298 1.55 392 1.55 430 1.55 438 1.55
  15  0.167  0.750  0.000- 441 1.55 299 1.55 433 1.55 395 1.55
  16  0.167  0.750  0.500- 300 1.55 432 1.55 394 1.55 440 1.55
  17  0.333  1.000  0.000- 397 1.55 301 1.55 451 1.55 443 1.55
  18  0.333  1.000  0.500- 396 1.55 302 1.55 442 1.55 450 1.55
  19  0.333  0.250  1.000- 303 1.55 437 1.55 445 1.55 399 1.55
  20  0.333  0.250  0.500- 304 1.55 436 1.55 444 1.55 398 1.55
  21  0.333  0.500  0.999- 439 1.55 305 1.55 401 1.55 447 1.55
  22  0.334  0.500  0.500- 400 1.54 446 1.55 438 1.55 306 1.55
  23  0.333  0.750  0.000- 307 1.55 403 1.55 449 1.55 441 1.55
  24  0.333  0.750  0.500- 402 1.55 440 1.55 308 1.55 448 1.55
  25  0.500  1.000  0.000- 405 1.55 309 1.55 459 1.55 451 1.55
  26  0.500  1.000  0.500- 404 1.55 310 1.55 458 1.55 450 1.55
  27  0.500  0.250  0.000- 407 1.54 311 1.54 453 1.55 445 1.55
  28  0.500  0.250  0.500- 452 1.55 444 1.55 312 1.55 406 1.55
  29  0.500  0.500  0.999- 455 1.55 447 1.55 313 1.55 409 1.55
  30  0.500  0.750  1.000- 314 1.54 411 1.55 457 1.55 449 1.55
  31  0.500  0.750  0.500- 410 1.55 315 1.55 456 1.55 448 1.55
  32  0.667  1.000  0.000- 413 1.55 316 1.55 459 1.55 467 1.55
  33  0.667  1.000  0.500- 412 1.55 317 1.55 466 1.55 458 1.55
  34  0.667  0.250  1.000- 318 1.55 461 1.55 453 1.55 415 1.55
  35  0.667  0.250  0.500- 319 1.55 460 1.55 452 1.55 414 1.55
  36  0.667  0.500  0.999- 463 1.55 320 1.55 417 1.55 455 1.55
  37  0.666  0.500  0.500- 416 1.54 454 1.55 462 1.55 321 1.55
  38  0.667  0.750  0.000- 322 1.55 419 1.55 457 1.55 465 1.55
  39  0.667  0.750  0.500- 418 1.55 464 1.55 323 1.55 456 1.55
  40  0.833  0.000  0.000- 324 1.55 475 1.55 421 1.55 467 1.55
  41  0.833  0.000  0.500- 474 1.55 325 1.55 420 1.55 466 1.55
  42  0.833  0.250  1.000- 469 1.55 326 1.55 461 1.55 423 1.55
  43  0.833  0.250  0.500- 327 1.55 460 1.55 422 1.55 468 1.55
  44  0.833  0.500  1.000- 328 1.55 471 1.55 425 1.55 463 1.55
  45  0.833  0.500  0.500- 329 1.55 424 1.55 470 1.55 462 1.55
  46  0.833  0.750  0.000- 465 1.55 330 1.55 473 1.55 427 1.55
  47  0.833  0.750  0.500- 331 1.55 472 1.55 426 1.55 464 1.55
  48  0.083  0.125  0.000- 332 1.55 381 1.55 429 1.55 389 1.55
  49  0.083  0.125  0.500- 333 1.55 380 1.55 428 1.55 388 1.55
  50  0.083  0.375  1.000- 383 1.55 431 1.55 334 1.55 391 1.55
  51  0.083  0.375  0.500- 335 1.55 430 1.55 390 1.55 382 1.55
  52  0.083  0.625  0.000- 393 1.55 385 1.55 336 1.55 433 1.55
  53  0.083  0.625  0.500- 337 1.55 432 1.55 384 1.55 392 1.55
  54  0.083  0.875  0.000- 395 1.55 338 1.55 387 1.55 435 1.55
  55  0.083  0.875  0.500- 339 1.55 386 1.55 434 1.55 394 1.55
  56  0.250  0.125  0.000- 340 1.55 389 1.55 437 1.55 397 1.55
  57  0.250  0.125  0.500- 388 1.55 341 1.55 396 1.55 436 1.55
  58  0.250  0.375  1.000- 342 1.55 391 1.55 399 1.55 439 1.55
  59  0.250  0.375  0.500- 343 1.54 398 1.55 438 1.55 390 1.55
  60  0.250  0.625  0.000- 401 1.54 344 1.54 393 1.55 441 1.55
  61  0.250  0.625  0.500- 345 1.55 440 1.55 392 1.55 400 1.55
  62  0.250  0.875  0.000- 346 1.55 443 1.55 403 1.55 395 1.55
  63  0.250  0.875  0.500- 442 1.55 394 1.55 347 1.55 402 1.55
  64  0.417  0.125  0.000- 445 1.54 348 1.55 397 1.55 405 1.55
  65  0.417  0.125  0.500- 396 1.55 404 1.55 349 1.55 444 1.55
  66  0.417  0.375  1.000- 350 1.55 399 1.55 407 1.55 447 1.55
  67  0.418  0.375  0.500- 406 1.54 446 1.55 398 1.55 351 1.56
  68  0.417  0.625  1.000- 352 1.54 449 1.55 401 1.55 409 1.55
  69  0.417  0.625  0.500- 400 1.54 448 1.55 408 1.55 353 1.55
  70  0.417  0.875  0.000- 451 1.55 354 1.55 411 1.55 403 1.55
  71  0.417  0.875  0.500- 450 1.55 355 1.55 402 1.55 410 1.55
  72  0.583  0.125  0.000- 453 1.54 356 1.55 413 1.55 405 1.55
  73  0.583  0.125  0.500- 412 1.55 404 1.55 357 1.55 452 1.55
  74  0.583  0.375  1.000- 358 1.55 415 1.55 407 1.55 455 1.55
  75  0.582  0.375  0.500- 406 1.54 454 1.55 414 1.55 359 1.56
  76  0.583  0.625  1.000- 360 1.54 457 1.55 417 1.55 409 1.55
  77  0.583  0.625  0.500- 416 1.54 456 1.55 408 1.55 361 1.55
  78  0.583  0.875  0.000- 459 1.55 362 1.55 411 1.55 419 1.55
  79  0.583  0.875  0.500- 458 1.55 363 1.55 418 1.55 410 1.55
  80  0.750  0.125  0.000- 364 1.55 421 1.55 461 1.55 413 1.55
  81  0.750  0.125  0.500- 420 1.55 365 1.55 412 1.55 460 1.55
  82  0.750  0.375  1.000- 366 1.55 423 1.55 415 1.55 463 1.55
  83  0.750  0.375  0.500- 367 1.54 414 1.55 462 1.55 422 1.55
  84  0.750  0.625  0.000- 417 1.54 368 1.54 425 1.55 465 1.55
  85  0.750  0.625  0.500- 369 1.55 464 1.55 424 1.55 416 1.55
  86  0.750  0.875  0.000- 370 1.55 467 1.55 419 1.55 427 1.55
  87  0.750  0.875  0.500- 466 1.55 426 1.55 371 1.55 418 1.55
  88  0.917  0.125  0.000- 372 1.55 381 1.55 469 1.55 421 1.55
  89  0.917  0.125  0.500- 373 1.55 380 1.55 468 1.55 420 1.55
  90  0.917  0.375  1.000- 383 1.55 471 1.55 374 1.55 423 1.55
  91  0.917  0.375  0.500- 375 1.55 470 1.55 422 1.55 382 1.55
  92  0.917  0.625  0.000- 425 1.55 385 1.55 376 1.55 473 1.55
  93  0.917  0.625  0.500- 377 1.55 472 1.55 384 1.55 424 1.55
  94  0.917  0.875  0.000- 427 1.55 378 1.55 387 1.55 475 1.55
  95  0.917  0.875  0.500- 379 1.55 386 1.55 474 1.55 426 1.55
  96  0.000  0.083  0.333- 380 1.55 476 1.55 564 1.55 524 1.55
  97  0.000  0.083  0.833- 381 1.55 565 1.55 525 1.55 477 1.55
  98  0.000  0.333  0.333- 478 1.55 382 1.55 566 1.55 526 1.55
  99  0.000  0.333  0.833- 383 1.55 479 1.55 567 1.55 527 1.55
 100  0.000  0.583  0.333- 384 1.55 480 1.55 568 1.55 528 1.55
 101  0.000  0.583  0.833- 385 1.55 569 1.55 529 1.55 481 1.55
 102  0.000  0.833  0.333- 386 1.55 570 1.55 530 1.55 482 1.55
 103  0.000  0.833  0.833- 387 1.55 571 1.55 531 1.55 483 1.55
 104  0.167  0.083  0.333- 388 1.55 524 1.55 484 1.55 532 1.55
 105  0.167  0.083  0.833- 525 1.55 389 1.55 485 1.55 533 1.55
 106  0.167  0.333  0.333- 486 1.55 390 1.55 534 1.55 526 1.55
 107  0.167  0.333  0.833- 391 1.55 527 1.55 535 1.55 487 1.55
 108  0.167  0.583  0.333- 392 1.55 488 1.55 528 1.55 536 1.55
 109  0.167  0.583  0.833- 529 1.55 393 1.55 489 1.55 537 1.55
 110  0.167  0.833  0.333- 394 1.55 530 1.55 490 1.55 538 1.55
 111  0.167  0.833  0.833- 539 1.55 491 1.55 395 1.55 531 1.55
 112  0.333  0.083  0.333- 396 1.55 532 1.55 492 1.55 540 1.55
 113  0.333  0.083  0.833- 493 1.54 533 1.55 397 1.55 541 1.55
 114  0.334  0.333  0.333- 542 1.55 494 1.55 534 1.55 398 1.55
 115  0.333  0.333  0.833- 399 1.54 535 1.55 543 1.55 495 1.55
 116  0.333  0.583  0.333- 536 1.55 496 1.55 544 1.55 400 1.55
 117  0.333  0.584  0.835- 401 1.54 537 1.55 497 1.55 545 1.55
 118  0.333  0.833  0.333- 498 1.55 402 1.55 546 1.55 538 1.55
 119  0.333  0.833  0.833- 499 1.55 403 1.55 547 1.55 539 1.55
 120  0.500  0.083  0.333- 404 1.55 500 1.55 548 1.55 540 1.55
 121  0.500  0.083  0.833- 501 1.54 405 1.55 549 1.55 541 1.55
 122  0.500  0.333  0.333- 550 1.55 542 1.55 502 1.55 406 1.55
 123  0.500  0.333  0.834- 407 1.54 503 1.55 551 1.55 543 1.55
 124  0.500  0.584  0.332- 408 1.54 504 1.54 552 1.55 544 1.55
 125  0.500  0.583  0.833- 409 1.54 505 1.55 553 1.55 545 1.55
 126  0.500  0.833  0.333- 506 1.55 410 1.55 554 1.55 546 1.55
 127  0.500  0.833  0.833- 507 1.55 411 1.55 555 1.55 547 1.55
 128  0.667  0.083  0.333- 412 1.55 556 1.55 508 1.55 548 1.55
 129  0.667  0.083  0.833- 509 1.54 557 1.55 413 1.55 549 1.55
 130  0.666  0.333  0.333- 550 1.55 510 1.55 558 1.55 414 1.55
 131  0.667  0.333  0.833- 415 1.54 559 1.55 551 1.55 511 1.55
 132  0.667  0.583  0.333- 560 1.55 512 1.55 552 1.55 416 1.55
 133  0.667  0.584  0.835- 417 1.54 561 1.55 513 1.55 553 1.55
 134  0.667  0.833  0.333- 514 1.55 418 1.55 554 1.55 562 1.55
 135  0.667  0.833  0.833- 515 1.55 419 1.55 555 1.55 563 1.55
 136  0.833  0.083  0.333- 420 1.55 564 1.55 516 1.55 556 1.55
 137  0.833  0.083  0.833- 565 1.55 421 1.55 517 1.55 557 1.55
 138  0.833  0.333  0.333- 518 1.55 422 1.55 558 1.55 566 1.55
 139  0.833  0.333  0.833- 423 1.55 567 1.55 559 1.55 519 1.55
 140  0.833  0.583  0.333- 424 1.55 520 1.55 568 1.55 560 1.55
 141  0.833  0.583  0.833- 569 1.55 425 1.55 521 1.55 561 1.55
 142  0.833  0.833  0.333- 426 1.55 570 1.55 522 1.55 562 1.55
 143  0.833  0.833  0.833- 563 1.55 523 1.55 427 1.55 571 1.55
 144  0.083  0.208  0.333- 428 1.55 484 1.55 526 1.55 476 1.55
 145  0.083  0.208  0.833- 485 1.55 429 1.55 477 1.55 527 1.55
 146  0.083  0.458  0.333- 430 1.55 528 1.55 486 1.55 478 1.55
 147  0.083  0.458  0.833- 431 1.55 529 1.55 479 1.55 487 1.55
 148  0.083  0.708  0.333- 432 1.55 488 1.55 530 1.55 480 1.55
 149  0.083  0.708  0.833- 433 1.55 489 1.55 531 1.55 481 1.55
 150  0.083  0.958  0.333- 434 1.55 490 1.55 524 1.55 482 1.55
 151  0.083  0.958  0.833- 491 1.55 435 1.55 525 1.55 483 1.55
 152  0.250  0.208  0.333- 436 1.55 534 1.55 484 1.55 492 1.55
 153  0.250  0.208  0.833- 485 1.55 437 1.55 493 1.55 535 1.55
 154  0.250  0.458  0.333- 536 1.55 486 1.55 494 1.55 438 1.55
 155  0.250  0.458  0.833- 439 1.54 487 1.55 537 1.55 495 1.55
 156  0.250  0.708  0.333- 440 1.55 488 1.55 538 1.55 496 1.55
 157  0.250  0.708  0.833- 497 1.55 441 1.55 539 1.55 489 1.55
 158  0.250  0.958  0.333- 442 1.55 490 1.55 532 1.55 498 1.55
 159  0.250  0.958  0.833- 533 1.55 443 1.55 491 1.55 499 1.55
 160  0.417  0.208  0.333- 492 1.55 444 1.55 500 1.55 542 1.55
 161  0.417  0.208  0.833- 543 1.54 445 1.55 493 1.55 501 1.55
 162  0.416  0.458  0.332- 494 1.54 446 1.54 502 1.55 544 1.55
 163  0.417  0.458  0.831- 495 1.54 545 1.55 447 1.56 503 1.56
 164  0.417  0.708  0.333- 546 1.55 496 1.55 504 1.55 448 1.55
 165  0.417  0.708  0.833- 449 1.55 547 1.55 497 1.55 505 1.55
 166  0.417  0.958  0.333- 450 1.55 540 1.55 498 1.55 506 1.55
 167  0.417  0.958  0.833- 541 1.55 451 1.55 499 1.55 507 1.55
 168  0.583  0.208  0.333- 508 1.55 452 1.55 500 1.55 550 1.55
 169  0.583  0.208  0.833- 551 1.54 453 1.55 509 1.55 501 1.55
 170  0.584  0.458  0.332- 510 1.54 454 1.54 502 1.55 552 1.55
 171  0.583  0.458  0.831- 511 1.54 553 1.55 455 1.56 503 1.56
 172  0.583  0.708  0.333- 554 1.55 512 1.55 504 1.55 456 1.55
 173  0.583  0.708  0.833- 457 1.55 555 1.55 513 1.55 505 1.55
 174  0.583  0.958  0.333- 458 1.55 548 1.55 514 1.55 506 1.55
 175  0.583  0.958  0.833- 549 1.55 459 1.55 515 1.55 507 1.55
 176  0.750  0.208  0.333- 460 1.55 558 1.55 516 1.55 508 1.55
 177  0.750  0.208  0.833- 517 1.55 461 1.55 509 1.55 559 1.55
 178  0.750  0.458  0.333- 560 1.55 518 1.55 510 1.55 462 1.55
 179  0.750  0.458  0.833- 463 1.54 519 1.55 561 1.55 511 1.55
 180  0.750  0.708  0.333- 464 1.55 520 1.55 562 1.55 512 1.55
 181  0.750  0.708  0.833- 513 1.55 465 1.55 563 1.55 521 1.55
 182  0.750  0.958  0.333- 466 1.55 522 1.55 556 1.55 514 1.55
 183  0.750  0.958  0.833- 557 1.55 467 1.55 523 1.55 515 1.55
 184  0.917  0.208  0.333- 468 1.55 516 1.55 566 1.55 476 1.55
 185  0.917  0.208  0.833- 517 1.55 469 1.55 477 1.55 567 1.55
 186  0.917  0.458  0.333- 470 1.55 568 1.55 518 1.55 478 1.55
 187  0.917  0.458  0.833- 471 1.55 569 1.55 479 1.55 519 1.55
 188  0.917  0.708  0.333- 472 1.55 520 1.55 570 1.55 480 1.55
 189  0.917  0.708  0.833- 473 1.55 521 1.55 571 1.55 481 1.55
 190  0.917  0.958  0.333- 474 1.55 522 1.55 564 1.55 482 1.55
 191  0.917  0.958  0.833- 523 1.55 475 1.55 565 1.55 483 1.55
 192  0.000  0.167  0.167- 476 1.55 287 1.55 372 1.55 332 1.55
 193  0.000  0.167  0.667- 373 1.55 333 1.55 288 1.55 477 1.55
 194  0.000  0.417  0.167- 289 1.55 374 1.55 334 1.55 478 1.55
 195  0.000  0.417  0.667- 479 1.55 290 1.55 375 1.55 335 1.55
 196  0.000  0.667  0.167- 376 1.55 336 1.55 480 1.55 291 1.55
 197  0.000  0.667  0.667- 377 1.55 337 1.55 481 1.55 292 1.55
 198  0.000  0.917  0.167- 482 1.55 378 1.55 338 1.55 285 1.55
 199  0.000  0.917  0.667- 379 1.55 339 1.55 483 1.55 286 1.55
 200  0.167  0.167  0.167- 484 1.55 295 1.55 332 1.55 340 1.55
 201  0.167  0.167  0.667- 485 1.55 333 1.55 341 1.55 296 1.55
 202  0.167  0.417  0.167- 334 1.55 297 1.55 342 1.55 486 1.55
 203  0.167  0.417  0.667- 487 1.55 298 1.55 335 1.55 343 1.55
 204  0.167  0.667  0.167- 488 1.55 344 1.55 336 1.55 299 1.55
 205  0.167  0.667  0.667- 489 1.55 337 1.55 300 1.55 345 1.55
 206  0.167  0.917  0.167- 490 1.55 293 1.55 346 1.55 338 1.55
 207  0.167  0.917  0.667- 294 1.54 347 1.54 339 1.55 491 1.55
 208  0.333  0.167  0.167- 492 1.55 340 1.55 303 1.55 348 1.55
 209  0.333  0.166  0.667- 304 1.54 341 1.54 493 1.55 349 1.55
 210  0.333  0.417  0.166- 494 1.54 342 1.54 305 1.55 350 1.55
 211  0.335  0.417  0.667- 495 1.54 306 1.55 351 1.56 343 1.56
 212  0.333  0.667  0.167- 496 1.55 307 1.55 344 1.55 352 1.55
 213  0.333  0.668  0.667- 308 1.54 345 1.55 497 1.55 353 1.55
 214  0.333  0.917  0.167- 498 1.55 301 1.55 346 1.55 354 1.55
 215  0.333  0.917  0.667- 302 1.54 499 1.55 347 1.55 355 1.55
 216  0.500  0.167  0.167- 500 1.55 311 1.55 356 1.55 348 1.55
 217  0.500  0.166  0.667- 312 1.54 357 1.55 349 1.55 501 1.55
 218  0.500  0.417  0.166- 502 1.54 358 1.55 350 1.55 313 1.55
 219  0.500  0.667  0.166- 504 1.54 314 1.54 360 1.55 352 1.55
 220  0.500  0.667  0.667- 315 1.54 505 1.54 361 1.55 353 1.55
 221  0.500  0.917  0.167- 309 1.55 506 1.55 362 1.55 354 1.55
 222  0.500  0.917  0.667- 310 1.54 363 1.55 355 1.55 507 1.55
 223  0.667  0.167  0.167- 508 1.55 364 1.55 318 1.55 356 1.55
 224  0.667  0.166  0.667- 319 1.54 365 1.54 509 1.55 357 1.55
 225  0.667  0.417  0.166- 510 1.54 366 1.54 320 1.55 358 1.55
 226  0.665  0.417  0.667- 511 1.54 321 1.55 359 1.56 367 1.56
 227  0.667  0.667  0.167- 512 1.55 322 1.55 368 1.55 360 1.55
 228  0.667  0.668  0.667- 323 1.54 369 1.55 513 1.55 361 1.55
 229  0.667  0.917  0.167- 514 1.55 316 1.55 370 1.55 362 1.55
 230  0.667  0.917  0.667- 317 1.54 515 1.55 371 1.55 363 1.55
 231  0.833  0.167  0.167- 516 1.55 326 1.55 372 1.55 364 1.55
 232  0.833  0.167  0.667- 517 1.55 373 1.55 365 1.55 327 1.55
 233  0.833  0.417  0.167- 374 1.55 328 1.55 366 1.55 518 1.55
 234  0.833  0.417  0.667- 519 1.55 329 1.55 375 1.55 367 1.55
 235  0.833  0.667  0.167- 520 1.55 368 1.55 376 1.55 330 1.55
 236  0.833  0.667  0.667- 521 1.55 377 1.55 331 1.55 369 1.55
 237  0.833  0.917  0.167- 522 1.55 324 1.55 370 1.55 378 1.55
 238  0.833  0.917  0.667- 325 1.54 371 1.54 379 1.55 523 1.55
 239  0.083  0.042  0.167- 524 1.55 293 1.55 332 1.55 285 1.55
 240  0.083  0.042  0.667- 294 1.55 286 1.55 525 1.55 333 1.55
 241  0.083  0.292  0.167- 334 1.55 295 1.55 526 1.55 287 1.55
 242  0.083  0.292  0.667- 527 1.55 296 1.55 335 1.55 288 1.55
 243  0.083  0.542  0.167- 528 1.55 336 1.55 289 1.55 297 1.55
 244  0.083  0.542  0.667- 290 1.55 298 1.55 529 1.55 337 1.55
 245  0.083  0.792  0.167- 299 1.55 530 1.55 291 1.55 338 1.55
 246  0.083  0.792  0.667- 300 1.55 292 1.55 531 1.55 339 1.55
 247  0.250  0.042  0.167- 532 1.55 340 1.55 293 1.55 301 1.55
 248  0.250  0.042  0.667- 341 1.54 294 1.55 533 1.55 302 1.55
 249  0.250  0.292  0.167- 303 1.55 295 1.55 342 1.55 534 1.55
 250  0.250  0.292  0.667- 535 1.55 304 1.55 296 1.55 343 1.55
 251  0.250  0.542  0.167- 297 1.55 344 1.55 536 1.55 305 1.55
 252  0.250  0.542  0.667- 298 1.54 537 1.55 345 1.55 306 1.57
 253  0.250  0.792  0.167- 538 1.55 346 1.55 307 1.55 299 1.55
 254  0.250  0.792  0.667- 308 1.54 347 1.54 539 1.55 300 1.55
 255  0.417  0.042  0.167- 348 1.55 540 1.55 301 1.55 309 1.55
 256  0.417  0.042  0.667- 349 1.54 302 1.55 310 1.55 541 1.55
 257  0.417  0.292  0.167- 303 1.55 311 1.55 542 1.55 350 1.55
 258  0.416  0.290  0.667- 304 1.54 351 1.54 312 1.55 543 1.55
 259  0.417  0.542  0.166- 544 1.54 305 1.55 352 1.55 313 1.55
 260  0.417  0.792  0.167- 354 1.55 307 1.55 546 1.55 314 1.55
 261  0.417  0.792  0.667- 355 1.54 547 1.55 308 1.55 315 1.55
 262  0.583  0.042  0.167- 356 1.55 548 1.55 316 1.55 309 1.55
 263  0.583  0.042  0.667- 357 1.54 317 1.55 310 1.55 549 1.55
 264  0.583  0.292  0.167- 318 1.55 311 1.55 550 1.55 358 1.55
 265  0.584  0.290  0.667- 319 1.54 359 1.54 312 1.55 551 1.55
 266  0.583  0.542  0.166- 552 1.54 320 1.55 360 1.55 313 1.55
 267  0.583  0.792  0.167- 362 1.55 322 1.55 554 1.55 314 1.55
 268  0.583  0.792  0.667- 363 1.54 555 1.55 323 1.55 315 1.55
 269  0.750  0.042  0.167- 556 1.55 364 1.55 324 1.55 316 1.55
 270  0.750  0.042  0.667- 365 1.54 325 1.55 557 1.55 317 1.55
 271  0.750  0.292  0.167- 318 1.55 326 1.55 366 1.55 558 1.55
 272  0.750  0.292  0.667- 559 1.55 319 1.55 327 1.55 367 1.55
 273  0.750  0.542  0.167- 328 1.55 368 1.55 560 1.55 320 1.55
 274  0.750  0.542  0.667- 329 1.54 561 1.55 369 1.55 321 1.57
 275  0.750  0.792  0.167- 562 1.55 370 1.55 322 1.55 330 1.55
 276  0.750  0.792  0.667- 323 1.54 371 1.54 563 1.55 331 1.55
 277  0.917  0.042  0.167- 564 1.55 324 1.55 372 1.55 285 1.55
 278  0.917  0.042  0.667- 325 1.55 286 1.55 565 1.55 373 1.55
 279  0.917  0.292  0.167- 374 1.55 326 1.55 566 1.55 287 1.55
 280  0.917  0.292  0.667- 567 1.55 327 1.55 375 1.55 288 1.55
 281  0.917  0.542  0.167- 568 1.55 376 1.55 289 1.55 328 1.55
 282  0.917  0.542  0.667- 290 1.55 329 1.55 569 1.55 377 1.55
 283  0.917  0.792  0.167- 330 1.55 570 1.55 291 1.55 378 1.55
 284  0.917  0.792  0.667- 331 1.55 292 1.55 571 1.55 379 1.55
 285  0.000  0.000  0.125-   1 1.55 277 1.55 239 1.55 198 1.55
 286  0.000  0.000  0.625-   2 1.55 278 1.55 240 1.55 199 1.55
 287  0.000  0.250  0.125- 192 1.55   3 1.55 279 1.55 241 1.55
 288  0.000  0.250  0.625-   4 1.55 193 1.55 280 1.55 242 1.55
 289  0.000  0.500  0.125-   5 1.55 194 1.55 281 1.55 243 1.55
 290  0.000  0.500  0.625- 282 1.55 244 1.55   6 1.55 195 1.55
 291  0.000  0.750  0.125-   7 1.55 283 1.55 245 1.55 196 1.55
 292  0.000  0.750  0.625-   8 1.55 284 1.55 246 1.55 197 1.55
 293  0.167  0.000  0.125-   9 1.55 239 1.55 247 1.55 206 1.55
 294  0.167  0.000  0.625- 207 1.54 248 1.55 240 1.55  10 1.55
 295  0.167  0.250  0.125- 241 1.55 200 1.55  11 1.55 249 1.55
 296  0.167  0.250  0.625-  12 1.55 242 1.55 250 1.55 201 1.55
 297  0.167  0.500  0.125-  13 1.55 251 1.55 202 1.55 243 1.55
 298  0.167  0.500  0.625- 252 1.54 244 1.55  14 1.55 203 1.55
 299  0.167  0.750  0.125- 245 1.55  15 1.55 253 1.55 204 1.55
 300  0.167  0.750  0.625- 246 1.55  16 1.55 254 1.55 205 1.55
 301  0.333  1.000  0.125-  17 1.55 214 1.55 255 1.55 247 1.55
 302  0.333  1.000  0.625- 215 1.54 256 1.55  18 1.55 248 1.55
 303  0.333  0.250  0.125-  19 1.55 257 1.55 208 1.55 249 1.55
 304  0.333  0.249  0.625- 258 1.54 209 1.54  20 1.55 250 1.55
 305  0.333  0.500  0.124- 259 1.55  21 1.55 210 1.55 251 1.55
 306  0.336  0.501  0.626- 574 1.51 211 1.55  22 1.55 252 1.57
 307  0.333  0.750  0.125-  23 1.55 253 1.55 260 1.55 212 1.55
 308  0.333  0.750  0.625- 213 1.54 254 1.54  24 1.55 261 1.55
 309  0.500  1.000  0.125- 221 1.55  25 1.55 262 1.55 255 1.55
 310  0.500  1.000  0.625- 222 1.54  26 1.55 263 1.55 256 1.55
 311  0.500  0.250  0.125-  27 1.54 216 1.55 264 1.55 257 1.55
 312  0.500  0.249  0.625- 217 1.54  28 1.55 265 1.55 258 1.55
 313  0.500  0.500  0.124-  29 1.55 218 1.55 266 1.55 259 1.55
 314  0.500  0.750  0.125- 219 1.54  30 1.54 267 1.55 260 1.55
 315  0.500  0.750  0.625- 220 1.54  31 1.55 268 1.55 261 1.55
 316  0.667  1.000  0.125-  32 1.55 229 1.55 262 1.55 269 1.55
 317  0.667  1.000  0.625- 230 1.54 263 1.55  33 1.55 270 1.55
 318  0.667  0.250  0.125-  34 1.55 264 1.55 223 1.55 271 1.55
 319  0.667  0.249  0.625- 265 1.54 224 1.54  35 1.55 272 1.55
 320  0.667  0.500  0.124- 266 1.55  36 1.55 225 1.55 273 1.55
 321  0.664  0.501  0.626- 575 1.51 226 1.55  37 1.55 274 1.57
 322  0.667  0.750  0.125-  38 1.55 275 1.55 267 1.55 227 1.55
 323  0.667  0.750  0.625- 228 1.54 276 1.54  39 1.55 268 1.55
 324  0.833  0.000  0.125-  40 1.55 277 1.55 269 1.55 237 1.55
 325  0.833  0.000  0.625- 238 1.54 270 1.55 278 1.55  41 1.55
 326  0.833  0.250  0.125- 279 1.55 231 1.55  42 1.55 271 1.55
 327  0.833  0.250  0.625-  43 1.55 280 1.55 272 1.55 232 1.55
 328  0.833  0.500  0.125-  44 1.55 273 1.55 233 1.55 281 1.55
 329  0.833  0.500  0.625- 274 1.54 282 1.55  45 1.55 234 1.55
 330  0.833  0.750  0.125- 283 1.55  46 1.55 275 1.55 235 1.55
 331  0.833  0.750  0.625- 284 1.55  47 1.55 276 1.55 236 1.55
 332  0.083  0.125  0.125-  48 1.55 239 1.55 192 1.55 200 1.55
 333  0.083  0.125  0.625-  49 1.55 193 1.55 240 1.55 201 1.55
 334  0.083  0.375  0.125- 241 1.55 202 1.55 194 1.55  50 1.55
 335  0.084  0.375  0.625-  51 1.55 242 1.55 195 1.55 203 1.55
 336  0.083  0.625  0.125- 196 1.55  52 1.55 243 1.55 204 1.55
 337  0.083  0.625  0.625-  53 1.55 197 1.55 205 1.55 244 1.55
 338  0.083  0.875  0.125-  54 1.55 198 1.55 245 1.55 206 1.55
 339  0.083  0.875  0.625- 199 1.55  55 1.55 207 1.55 246 1.55
 340  0.250  0.125  0.125-  56 1.55 247 1.55 208 1.55 200 1.55
 341  0.250  0.125  0.625- 209 1.54 248 1.54  57 1.55 201 1.55
 342  0.250  0.375  0.125- 210 1.54  58 1.55 249 1.55 202 1.55
 343  0.251  0.375  0.625-  59 1.54 250 1.55 203 1.55 211 1.56
 344  0.250  0.625  0.125-  60 1.54 204 1.55 251 1.55 212 1.55
 345  0.250  0.625  0.625-  61 1.55 205 1.55 213 1.55 252 1.55
 346  0.250  0.875  0.125-  62 1.55 253 1.55 206 1.55 214 1.55
 347  0.250  0.875  0.625- 254 1.54 207 1.54  63 1.55 215 1.55
 348  0.417  0.125  0.125-  64 1.55 255 1.55 216 1.55 208 1.55
 349  0.417  0.125  0.625- 256 1.54 217 1.55  65 1.55 209 1.55
 350  0.417  0.375  0.124-  66 1.55 218 1.55 210 1.55 257 1.55
 351  0.419  0.374  0.627- 576 1.48 258 1.54 211 1.56  67 1.56
 352  0.417  0.625  0.125-  68 1.54 259 1.55 219 1.55 212 1.55
 353  0.417  0.625  0.626- 574 1.49 220 1.55 213 1.55  69 1.55
 354  0.417  0.875  0.125- 260 1.55  70 1.55 221 1.55 214 1.55
 355  0.417  0.875  0.625- 261 1.54 222 1.55  71 1.55 215 1.55
 356  0.583  0.125  0.125-  72 1.55 262 1.55 216 1.55 223 1.55
 357  0.583  0.125  0.625- 263 1.54 217 1.55  73 1.55 224 1.55
 358  0.583  0.375  0.124-  74 1.55 218 1.55 225 1.55 264 1.55
 359  0.581  0.374  0.627- 576 1.48 265 1.54 226 1.56  75 1.56
 360  0.583  0.625  0.125-  76 1.54 266 1.55 219 1.55 227 1.55
 361  0.583  0.625  0.626- 575 1.49 220 1.55 228 1.55  77 1.55
 362  0.583  0.875  0.125- 267 1.55  78 1.55 221 1.55 229 1.55
 363  0.583  0.875  0.625- 268 1.54 222 1.55  79 1.55 230 1.55
 364  0.750  0.125  0.125-  80 1.55 269 1.55 223 1.55 231 1.55
 365  0.750  0.125  0.625- 224 1.54 270 1.54  81 1.55 232 1.55
 366  0.750  0.375  0.125- 225 1.54  82 1.55 271 1.55 233 1.55
 367  0.749  0.375  0.625-  83 1.54 272 1.55 234 1.55 226 1.56
 368  0.750  0.625  0.125-  84 1.54 235 1.55 273 1.55 227 1.55
 369  0.750  0.625  0.625-  85 1.55 236 1.55 228 1.55 274 1.55
 370  0.750  0.875  0.125-  86 1.55 275 1.55 237 1.55 229 1.55
 371  0.750  0.875  0.625- 276 1.54 238 1.54  87 1.55 230 1.55
 372  0.917  0.125  0.125-  88 1.55 277 1.55 192 1.55 231 1.55
 373  0.917  0.125  0.625-  89 1.55 193 1.55 278 1.55 232 1.55
 374  0.917  0.375  0.125- 279 1.55 233 1.55 194 1.55  90 1.55
 375  0.916  0.375  0.625-  91 1.55 280 1.55 195 1.55 234 1.55
 376  0.917  0.625  0.125- 196 1.55  92 1.55 281 1.55 235 1.55
 377  0.917  0.625  0.625-  93 1.55 197 1.55 236 1.55 282 1.55
 378  0.917  0.875  0.125-  94 1.55 198 1.55 283 1.55 237 1.55
 379  0.917  0.875  0.625- 199 1.55  95 1.55 238 1.55 284 1.55
 380  0.000  0.083  0.458-  96 1.55  89 1.55  49 1.55   2 1.55
 381  0.000  0.083  0.958-  88 1.55  48 1.55  97 1.55   1 1.55
 382  0.000  0.333  0.458-  98 1.55   4 1.55  91 1.55  51 1.55
 383  0.000  0.333  0.958-  90 1.55  50 1.55  99 1.55   3 1.55
 384  0.000  0.583  0.458- 100 1.55   6 1.55  93 1.55  53 1.55
 385  0.000  0.583  0.958-  92 1.55  52 1.55 101 1.55   5 1.55
 386  0.000  0.833  0.458- 102 1.55  95 1.55  55 1.55   8 1.55
 387  0.000  0.833  0.958-  94 1.55  54 1.55 103 1.55   7 1.55
 388  0.167  0.083  0.458- 104 1.55  57 1.55  10 1.55  49 1.55
 389  0.167  0.083  0.958- 105 1.55   9 1.55  56 1.55  48 1.55
 390  0.167  0.333  0.458- 106 1.55  12 1.55  51 1.55  59 1.55
 391  0.167  0.333  0.958-  58 1.55 107 1.55  11 1.55  50 1.55
 392  0.167  0.583  0.458-  14 1.55  61 1.55 108 1.55  53 1.55
 393  0.167  0.583  0.958-  52 1.55  13 1.55 109 1.55  60 1.55
 394  0.167  0.833  0.458- 110 1.55  63 1.55  16 1.55  55 1.55
 395  0.167  0.833  0.958-  54 1.55 111 1.55  15 1.55  62 1.55
 396  0.333  0.083  0.458-  18 1.55 112 1.55  65 1.55  57 1.55
 397  0.333  0.083  0.958-  17 1.55 113 1.55  64 1.55  56 1.55
 398  0.334  0.333  0.459-  59 1.55  20 1.55 114 1.55  67 1.55
 399  0.333  0.333  0.958- 115 1.54  66 1.55  58 1.55  19 1.55
 400  0.334  0.583  0.458-  69 1.54  22 1.54  61 1.55 116 1.55
 401  0.333  0.584  0.959- 117 1.54  60 1.54  68 1.55  21 1.55
 402  0.333  0.833  0.458-  24 1.55 118 1.55  71 1.55  63 1.55
 403  0.333  0.833  0.958- 119 1.55  23 1.55  62 1.55  70 1.55
 404  0.500  0.083  0.458-  26 1.55 120 1.55  73 1.55  65 1.55
 405  0.500  0.083  0.958-  25 1.55 121 1.55  72 1.55  64 1.55
 406  0.500  0.333  0.458-  75 1.54  67 1.54 122 1.55  28 1.55
 407  0.500  0.333  0.958- 123 1.54  27 1.54  74 1.55  66 1.55
 408  0.500  0.583  0.456- 572 1.52 124 1.54  77 1.55  69 1.55
 409  0.500  0.583  0.958- 125 1.54  29 1.55  76 1.55  68 1.55
 410  0.500  0.833  0.458- 126 1.55  31 1.55  79 1.55  71 1.55
 411  0.500  0.833  0.958-  30 1.55 127 1.55  78 1.55  70 1.55
 412  0.667  0.083  0.458-  33 1.55 128 1.55  73 1.55  81 1.55
 413  0.667  0.083  0.958-  32 1.55 129 1.55  72 1.55  80 1.55
 414  0.666  0.333  0.459-  83 1.55  35 1.55 130 1.55  75 1.55
 415  0.667  0.333  0.958- 131 1.54  74 1.55  82 1.55  34 1.55
 416  0.666  0.583  0.458-  77 1.54  37 1.54  85 1.55 132 1.55
 417  0.667  0.584  0.959- 133 1.54  84 1.54  76 1.55  36 1.55
 418  0.667  0.833  0.458-  39 1.55 134 1.55  79 1.55  87 1.55
 419  0.667  0.833  0.958- 135 1.55  38 1.55  86 1.55  78 1.55
 420  0.833  0.083  0.458- 136 1.55  81 1.55  41 1.55  89 1.55
 421  0.833  0.083  0.958- 137 1.55  40 1.55  80 1.55  88 1.55
 422  0.833  0.333  0.458- 138 1.55  43 1.55  91 1.55  83 1.55
 423  0.833  0.333  0.958-  82 1.55 139 1.55  42 1.55  90 1.55
 424  0.833  0.583  0.458-  45 1.55  85 1.55 140 1.55  93 1.55
 425  0.833  0.583  0.958-  92 1.55  44 1.55 141 1.55  84 1.55
 426  0.833  0.833  0.458- 142 1.55  87 1.55  47 1.55  95 1.55
 427  0.833  0.833  0.958-  94 1.55 143 1.55  46 1.55  86 1.55
 428  0.083  0.208  0.458- 144 1.55  49 1.55   4 1.55  12 1.55
 429  0.083  0.208  0.958-  11 1.55 145 1.55  48 1.55   3 1.55
 430  0.083  0.458  0.458-  51 1.55 146 1.55  14 1.55   6 1.55
 431  0.083  0.458  0.958- 147 1.55  13 1.55  50 1.55   5 1.55
 432  0.083  0.708  0.458- 148 1.55  16 1.55  53 1.55   8 1.55
 433  0.083  0.708  0.958-  15 1.55   7 1.55 149 1.55  52 1.55
 434  0.083  0.958  0.458-  10 1.55 150 1.55  55 1.55   2 1.55
 435  0.083  0.958  0.958-   9 1.55 151 1.55   1 1.55  54 1.55
 436  0.250  0.208  0.458- 152 1.55  20 1.55  12 1.55  57 1.55
 437  0.250  0.208  0.958- 153 1.55  19 1.55  56 1.55  11 1.55
 438  0.251  0.459  0.459-  59 1.55  14 1.55 154 1.55  22 1.55
 439  0.250  0.458  0.958- 155 1.54  21 1.55  58 1.55  13 1.55
 440  0.250  0.708  0.458- 156 1.55  24 1.55  61 1.55  16 1.55
 441  0.250  0.708  0.958-  15 1.55 157 1.55  23 1.55  60 1.55
 442  0.250  0.958  0.458-  63 1.55 158 1.55  18 1.55  10 1.55
 443  0.250  0.958  0.958-  62 1.55 159 1.55  17 1.55   9 1.55
 444  0.417  0.208  0.458-  28 1.55  20 1.55 160 1.55  65 1.55
 445  0.417  0.208  0.958-  64 1.54 161 1.55  19 1.55  27 1.55
 446  0.417  0.458  0.456- 572 1.52 162 1.54  22 1.55  67 1.55
 447  0.417  0.458  0.957-  29 1.55  66 1.55  21 1.55 163 1.56
 448  0.417  0.708  0.459-  31 1.55  69 1.55  24 1.55 164 1.55
 449  0.417  0.708  0.958- 165 1.55  68 1.55  23 1.55  30 1.55
 450  0.417  0.958  0.458-  71 1.55 166 1.55  18 1.55  26 1.55
 451  0.417  0.958  0.958-  70 1.55 167 1.55  17 1.55  25 1.55
 452  0.583  0.208  0.458-  28 1.55  35 1.55 168 1.55  73 1.55
 453  0.583  0.208  0.958-  72 1.54 169 1.55  34 1.55  27 1.55
 454  0.583  0.458  0.456- 572 1.52 170 1.54  37 1.55  75 1.55
 455  0.583  0.458  0.957-  29 1.55  74 1.55  36 1.55 171 1.56
 456  0.583  0.708  0.459-  31 1.55  77 1.55  39 1.55 172 1.55
 457  0.583  0.708  0.958- 173 1.55  76 1.55  38 1.55  30 1.55
 458  0.583  0.958  0.458-  79 1.55 174 1.55  33 1.55  26 1.55
 459  0.583  0.958  0.958-  78 1.55 175 1.55  32 1.55  25 1.55
 460  0.750  0.208  0.458- 176 1.55  35 1.55  43 1.55  81 1.55
 461  0.750  0.208  0.958- 177 1.55  34 1.55  80 1.55  42 1.55
 462  0.749  0.459  0.459-  83 1.55  45 1.55 178 1.55  37 1.55
 463  0.750  0.458  0.958- 179 1.54  36 1.55  82 1.55  44 1.55
 464  0.750  0.708  0.458- 180 1.55  39 1.55  85 1.55  47 1.55
 465  0.750  0.708  0.958-  46 1.55 181 1.55  38 1.55  84 1.55
 466  0.750  0.958  0.458-  87 1.55 182 1.55  33 1.55  41 1.55
 467  0.750  0.958  0.958-  86 1.55 183 1.55  32 1.55  40 1.55
 468  0.917  0.208  0.458- 184 1.55  89 1.55   4 1.55  43 1.55
 469  0.917  0.208  0.958-  42 1.55 185 1.55  88 1.55   3 1.55
 470  0.917  0.458  0.458-  91 1.55 186 1.55  45 1.55   6 1.55
 471  0.917  0.458  0.958- 187 1.55  44 1.55  90 1.55   5 1.55
 472  0.917  0.708  0.458- 188 1.55  47 1.55  93 1.55   8 1.55
 473  0.917  0.708  0.958-  46 1.55   7 1.55 189 1.55  92 1.55
 474  0.917  0.958  0.458-  41 1.55 190 1.55  95 1.55   2 1.55
 475  0.917  0.958  0.958-  40 1.55 191 1.55   1 1.55  94 1.55
 476  0.000  0.167  0.292- 192 1.55  96 1.55 184 1.55 144 1.55
 477  0.000  0.167  0.792- 193 1.55  97 1.55 185 1.55 145 1.55
 478  0.000  0.417  0.292-  98 1.55 194 1.55 186 1.55 146 1.55
 479  0.000  0.417  0.792- 195 1.55  99 1.55 187 1.55 147 1.55
 480  0.000  0.667  0.292- 196 1.55 100 1.55 188 1.55 148 1.55
 481  0.000  0.667  0.792- 197 1.55 101 1.55 189 1.55 149 1.55
 482  0.000  0.917  0.292- 198 1.55 190 1.55 150 1.55 102 1.55
 483  0.000  0.917  0.792- 199 1.55 191 1.55 151 1.55 103 1.55
 484  0.167  0.167  0.292- 200 1.55 152 1.55 144 1.55 104 1.55
 485  0.167  0.167  0.792- 153 1.55 201 1.55 145 1.55 105 1.55
 486  0.167  0.417  0.292- 106 1.55 146 1.55 154 1.55 202 1.55
 487  0.167  0.417  0.792- 203 1.55 155 1.55 107 1.55 147 1.55
 488  0.167  0.667  0.292- 204 1.55 148 1.55 156 1.55 108 1.55
 489  0.167  0.667  0.792- 205 1.55 149 1.55 157 1.55 109 1.55
 490  0.167  0.917  0.292- 206 1.55 158 1.55 150 1.55 110 1.55
 491  0.167  0.917  0.792- 151 1.55 111 1.55 159 1.55 207 1.55
 492  0.333  0.167  0.292- 160 1.55 208 1.55 112 1.55 152 1.55
 493  0.333  0.166  0.792- 113 1.54 161 1.55 153 1.55 209 1.55
 494  0.333  0.417  0.291- 162 1.54 210 1.54 114 1.55 154 1.55
 495  0.334  0.417  0.791- 211 1.54 163 1.54 155 1.55 115 1.55
 496  0.333  0.667  0.292- 212 1.55 116 1.55 164 1.55 156 1.55
 497  0.333  0.667  0.792- 157 1.55 165 1.55 213 1.55 117 1.55
 498  0.333  0.917  0.292- 118 1.55 214 1.55 166 1.55 158 1.55
 499  0.333  0.917  0.792- 119 1.55 159 1.55 167 1.55 215 1.55
 500  0.500  0.167  0.292- 216 1.55 120 1.55 168 1.55 160 1.55
 501  0.500  0.166  0.792- 121 1.54 217 1.55 169 1.55 161 1.55
 502  0.500  0.417  0.291- 218 1.54 122 1.55 170 1.55 162 1.55
 503  0.500  0.415  0.789- 576 1.48 123 1.55 171 1.56 163 1.56
 504  0.500  0.667  0.291- 124 1.54 219 1.54 172 1.55 164 1.55
 505  0.500  0.667  0.792- 220 1.54 125 1.55 173 1.55 165 1.55
 506  0.500  0.917  0.292- 221 1.55 126 1.55 174 1.55 166 1.55
 507  0.500  0.917  0.792- 127 1.55 222 1.55 175 1.55 167 1.55
 508  0.667  0.167  0.292- 168 1.55 223 1.55 128 1.55 176 1.55
 509  0.667  0.166  0.792- 129 1.54 169 1.55 177 1.55 224 1.55
 510  0.667  0.417  0.291- 170 1.54 225 1.54 130 1.55 178 1.55
 511  0.666  0.417  0.791- 226 1.54 171 1.54 179 1.55 131 1.55
 512  0.667  0.667  0.292- 227 1.55 132 1.55 172 1.55 180 1.55
 513  0.667  0.667  0.792- 181 1.55 173 1.55 228 1.55 133 1.55
 514  0.667  0.917  0.292- 134 1.55 229 1.55 174 1.55 182 1.55
 515  0.667  0.917  0.792- 135 1.55 183 1.55 175 1.55 230 1.55
 516  0.833  0.167  0.292- 231 1.55 176 1.55 184 1.55 136 1.55
 517  0.833  0.167  0.792- 177 1.55 232 1.55 185 1.55 137 1.55
 518  0.833  0.417  0.292- 138 1.55 186 1.55 178 1.55 233 1.55
 519  0.833  0.417  0.792- 234 1.55 179 1.55 139 1.55 187 1.55
 520  0.833  0.667  0.292- 235 1.55 188 1.55 180 1.55 140 1.55
 521  0.833  0.667  0.792- 236 1.55 189 1.55 181 1.55 141 1.55
 522  0.833  0.917  0.292- 237 1.55 182 1.55 190 1.55 142 1.55
 523  0.833  0.917  0.792- 191 1.55 143 1.55 183 1.55 238 1.55
 524  0.083  0.042  0.292- 239 1.55 104 1.55 150 1.55  96 1.55
 525  0.083  0.042  0.792- 105 1.55 240 1.55 151 1.55  97 1.55
 526  0.083  0.292  0.292- 144 1.55 241 1.55  98 1.55 106 1.55
 527  0.083  0.292  0.792- 242 1.55 107 1.55 145 1.55  99 1.55
 528  0.083  0.542  0.292- 146 1.55 243 1.55 108 1.55 100 1.55
 529  0.083  0.542  0.792- 244 1.55 109 1.55 147 1.55 101 1.55
 530  0.083  0.792  0.292- 245 1.55 110 1.55 102 1.55 148 1.55
 531  0.083  0.792  0.792- 111 1.55 246 1.55 103 1.55 149 1.55
 532  0.250  0.042  0.292- 247 1.55 112 1.55 158 1.55 104 1.55
 533  0.250  0.042  0.792- 159 1.55 113 1.55 105 1.55 248 1.55
 534  0.250  0.292  0.292- 152 1.55 106 1.55 114 1.55 249 1.55
 535  0.250  0.292  0.792- 250 1.55 115 1.55 107 1.55 153 1.55
 536  0.250  0.542  0.292- 116 1.55 154 1.55 251 1.55 108 1.55
 537  0.250  0.542  0.792- 155 1.55 109 1.55 252 1.55 117 1.55
 538  0.250  0.792  0.292- 253 1.55 110 1.55 118 1.55 156 1.55
 539  0.250  0.792  0.792- 111 1.55 119 1.55 157 1.55 254 1.55
 540  0.417  0.042  0.292- 255 1.55 166 1.55 112 1.55 120 1.55
 541  0.417  0.042  0.792- 167 1.55 256 1.55 113 1.55 121 1.55
 542  0.417  0.292  0.292- 122 1.55 114 1.55 257 1.55 160 1.55
 543  0.417  0.291  0.792- 161 1.54 115 1.55 123 1.55 258 1.55
 544  0.417  0.542  0.291- 259 1.54 116 1.55 124 1.55 162 1.55
 545  0.417  0.542  0.791- 574 1.49 125 1.55 163 1.55 117 1.55
 546  0.417  0.792  0.292- 164 1.55 118 1.55 260 1.55 126 1.55
 547  0.417  0.792  0.792- 165 1.55 261 1.55 119 1.55 127 1.55
 548  0.583  0.042  0.292- 262 1.55 174 1.55 128 1.55 120 1.55
 549  0.583  0.042  0.792- 175 1.55 263 1.55 129 1.55 121 1.55
 550  0.583  0.292  0.292- 122 1.55 130 1.55 264 1.55 168 1.55
 551  0.583  0.291  0.792- 169 1.54 131 1.55 123 1.55 265 1.55
 552  0.583  0.542  0.291- 266 1.54 132 1.55 124 1.55 170 1.55
 553  0.583  0.542  0.791- 575 1.49 125 1.55 171 1.55 133 1.55
 554  0.583  0.792  0.292- 172 1.55 134 1.55 267 1.55 126 1.55
 555  0.583  0.792  0.792- 173 1.55 268 1.55 135 1.55 127 1.55
 556  0.750  0.042  0.292- 269 1.55 128 1.55 182 1.55 136 1.55
 557  0.750  0.042  0.792- 183 1.55 129 1.55 137 1.55 270 1.55
 558  0.750  0.292  0.292- 176 1.55 138 1.55 130 1.55 271 1.55
 559  0.750  0.292  0.792- 272 1.55 131 1.55 139 1.55 177 1.55
 560  0.750  0.542  0.292- 132 1.55 178 1.55 273 1.55 140 1.55
 561  0.750  0.542  0.792- 179 1.55 141 1.55 274 1.55 133 1.55
 562  0.750  0.792  0.292- 275 1.55 142 1.55 134 1.55 180 1.55
 563  0.750  0.792  0.792- 143 1.55 135 1.55 181 1.55 276 1.55
 564  0.917  0.042  0.292- 277 1.55 136 1.55 190 1.55  96 1.55
 565  0.917  0.042  0.792- 137 1.55 278 1.55 191 1.55  97 1.55
 566  0.917  0.292  0.292- 184 1.55 279 1.55  98 1.55 138 1.55
 567  0.917  0.292  0.792- 280 1.55 139 1.55 185 1.55  99 1.55
 568  0.917  0.542  0.292- 186 1.55 281 1.55 140 1.55 100 1.55
 569  0.917  0.542  0.792- 282 1.55 141 1.55 187 1.55 101 1.55
 570  0.917  0.792  0.292- 283 1.55 142 1.55 102 1.55 188 1.55
 571  0.917  0.792  0.792- 143 1.55 284 1.55 103 1.55 189 1.55
 572  0.500  0.500  0.491- 573 1.09 454 1.52 446 1.52 408 1.52
 573  0.500  0.501  0.579- 572 1.09
 574  0.412  0.546  0.671- 545 1.49 353 1.49 306 1.51
 575  0.588  0.546  0.671- 553 1.49 361 1.49 321 1.51
 576  0.500  0.409  0.670- 359 1.48 351 1.48 503 1.48
 
  LATTYP: Found a simple monoclinic cell.
 ALAT       =    12.3703241348
 B/A-ratio  =     1.2248453018
 C/A-ratio  =     1.4141600350
 COS(beta)  =    -0.0000282295
  
  Lattice vectors:
  
 A1 = (   0.0000000000,  -0.0003492082,  12.3703241299)
 A2 = (  15.1517333984,   0.0000000000,   0.0000000000)
 A3 = (   0.0000000000,  17.4936180115,   0.0000000000)


Analysis of symmetry for initial positions (statically):
=====================================================================
 Subroutine PRICEL returns:
 Original cell was already a primitive cell.
 

 Routine SETGRP: Setting up the symmetry group for a 
 simple monoclinic supercell.


 Subroutine GETGRP returns: Found  2 space group operations
 (whereof  2 operations were pure point group operations)
 out of a pool of  4 trial point group operations.


The static configuration has the point symmetry C_1h.


Analysis of symmetry for dynamics (positions and initial velocities):
=====================================================================
 Subroutine PRICEL returns:
 Original cell was already a primitive cell.
 

 Routine SETGRP: Setting up the symmetry group for a 
 simple monoclinic supercell.


 Subroutine GETGRP returns: Found  2 space group operations
 (whereof  2 operations were pure point group operations)
 out of a pool of  4 trial point group operations.


The dynamic configuration has the point symmetry C_1h.


Analysis of structural, dynamic, and magnetic symmetry:
=====================================================================
 Subroutine PRICEL returns:
 Original cell was already a primitive cell.
 

 Routine SETGRP: Setting up the symmetry group for a 
 simple monoclinic supercell.


 Subroutine GETGRP returns: Found  2 space group operations
 (whereof  2 operations were pure point group operations)
 out of a pool of  4 trial point group operations.


The overall configuration has the point symmetry C_1h.


 Subroutine INISYM returns: Found  2 space group operations
 (whereof  2 operations are pure point group operations),
 and found     1 'primitive' translations


----------------------------------------------------------------------------------------

                                     Primitive cell                                     

  volume of cell :    3278.8612

  direct lattice vectors                    reciprocal lattice vectors
    15.151733398  0.000000000  0.000000000     0.065999049  0.000000000  0.000000000
     0.000000000 17.493618012  0.000000000     0.000000000  0.057163704  0.000001614
     0.000000000 -0.000349208 12.370324130     0.000000000  0.000000000  0.080838626

  length of vectors
    15.151733398 17.493618012 12.370324135     0.065999049  0.057163704  0.080838626

  position of ions in fractional coordinates (direct lattice)
     0.000000000  0.000018471  0.000027749
     0.000000000  0.000029223  0.500009964
     0.000000000  0.250027681  0.000006940
     0.000000000  0.250062389  0.500013463
     0.000000000  0.499985190  0.999955965
     0.000000000  0.500000293  0.500037344
     0.000000000  0.749991780  0.000057261
     0.000000000  0.749973804  0.500066885
     0.166637764  0.000001762  0.000034283
     0.166626910  0.000013050  0.500006369
     0.166667729  0.250016136  0.999981871
     0.166734002  0.250063593  0.500031433
     0.166718773  0.499997203  0.999902369
     0.166874234  0.500015671  0.500083207
     0.166631259  0.750025361  0.000089029
     0.166697915  0.749984288  0.500045356
     0.333315113  0.999961072  0.000056227
     0.333314071  0.999960679  0.500002159
     0.333336034  0.249944997  0.999956053
     0.333400180  0.249905488  0.500084756
     0.333453509  0.499984536  0.999451195
     0.334311654  0.500127722  0.500122144
     0.333324797  0.750046976  0.000033169
     0.333357954  0.750041242  0.500066976
     0.500000000  0.999945988  0.000056399
     0.500000000  0.999938841  0.500003755
     0.500000000  0.249783954  0.000219018
     0.500000000  0.249818681  0.499934322
     0.500000000  0.500010389  0.999371935
     0.500000000  0.750078925  0.999926348
     0.500000000  0.749926847  0.500120650
     0.666684917  0.999961072  0.000056227
     0.666685959  0.999960679  0.500002159
     0.666663996  0.249944997  0.999956053
     0.666599850  0.249905488  0.500084756
     0.666546521  0.499984536  0.999451195
     0.665688376  0.500127722  0.500122144
     0.666675233  0.750046976  0.000033169
     0.666642076  0.750041242  0.500066976
     0.833362221  0.000001762  0.000034283
     0.833373075  0.000013050  0.500006369
     0.833332256  0.250016136  0.999981871
     0.833265983  0.250063593  0.500031433
     0.833281212  0.499997203  0.999902369
     0.833125751  0.500015671  0.500083207
     0.833368726  0.750025361  0.000089029
     0.833302070  0.749984288  0.500045356
     0.083318760  0.125022673  0.000012184
     0.083326896  0.125050908  0.500005582
     0.083346810  0.375006746  0.999927467
     0.083460139  0.375061771  0.500051563
     0.083316021  0.624989040  0.000059979
     0.083392241  0.624964588  0.500026579
     0.083307123  0.875011480  0.000050879
     0.083317253  0.875001126  0.500022397
     0.249977537  0.124973183  0.000015971
     0.249983347  0.124962427  0.500006867
     0.249999337  0.374965633  0.999746261
     0.250468871  0.375149568  0.500197679
     0.249858251  0.625091148  0.000394066
     0.250210401  0.624958564  0.500031677
     0.249972419  0.875005449  0.000043099
     0.249969954  0.875023050  0.500009377
     0.416648823  0.124884426  0.000101294
     0.416655099  0.124890505  0.499980658
     0.416723739  0.374927174  0.999568390
     0.417671785  0.375335498  0.500417270
     0.416628687  0.625095988  0.999972540
     0.416967230  0.624662957  0.500142567
     0.416662587  0.875011447  0.000007857
     0.416673786  0.874977312  0.500010998
     0.583351147  0.124884426  0.000101294
     0.583344871  0.124890505  0.499980658
     0.583276231  0.374927174  0.999568390
     0.582328185  0.375335498  0.500417270
     0.583371283  0.625095988  0.999972540
     0.583032740  0.624662957  0.500142567
     0.583337383  0.875011447  0.000007857
     0.583326184  0.874977312  0.500010998
     0.750022463  0.124973183  0.000015971
     0.750016653  0.124962427  0.500006867
     0.750000663  0.374965633  0.999746261
     0.749531129  0.375149568  0.500197679
     0.750141749  0.625091148  0.000394066
     0.749789599  0.624958564  0.500031677
     0.750027581  0.875005449  0.000043099
     0.750030046  0.875023050  0.500009377
     0.916681263  0.125022673  0.000012184
     0.916673127  0.125050908  0.500005582
     0.916653213  0.375006746  0.999927467
     0.916539884  0.375061771  0.500051563
     0.916684002  0.624989040  0.000059979
     0.916607782  0.624964588  0.500026579
     0.916692900  0.875011480  0.000050879
     0.916682770  0.875001126  0.500022397
     0.000000000  0.083365740  0.333348768
     0.000000000  0.083379371  0.833339614
     0.000000000  0.333382960  0.333395691
     0.000000000  0.333366467  0.833264985
     0.000000000  0.583301705  0.333372615
     0.000000000  0.583321380  0.833346989
     0.000000000  0.833320454  0.333397839
     0.000000000  0.833338406  0.833357228
     0.166666846  0.083349026  0.333324892
     0.166643927  0.083333285  0.833335917
     0.166797147  0.333398609  0.333432009
     0.166734420  0.333348556  0.833187037
     0.166756813  0.583294755  0.333342981
     0.166727182  0.583327754  0.833329795
     0.166680101  0.833321615  0.333365427
     0.166626088  0.833381431  0.833380755
     0.333310490  0.083307988  0.333319648
     0.333263222  0.083206954  0.833385257
     0.333527130  0.333388770  0.333444310
     0.333406750  0.333247894  0.833191301
     0.333448108  0.583311726  0.333232149
     0.333143391  0.583615481  0.834545881
     0.333327286  0.833347473  0.333337157
     0.333296492  0.833391562  0.833343961
     0.500000000  0.083281344  0.333353676
     0.500000000  0.083186163  0.833390973
     0.500000000  0.333278841  0.333120965
     0.500000000  0.332554498  0.834145026
     0.500000000  0.583945997  0.332086852
     0.500000000  0.583471101  0.833244876
     0.500000000  0.833314574  0.333371936
     0.500000000  0.833402419  0.833314139
     0.666689540  0.083307988  0.333319648
     0.666736808  0.083206954  0.833385257
     0.666472900  0.333388770  0.333444310
     0.666593280  0.333247894  0.833191301
     0.666551922  0.583311726  0.333232149
     0.666856639  0.583615481  0.834545881
     0.666672744  0.833347473  0.333337157
     0.666703538  0.833391562  0.833343961
     0.833333139  0.083349026  0.333324892
     0.833356058  0.083333285  0.833335917
     0.833202838  0.333398609  0.333432009
     0.833265565  0.333348556  0.833187037
     0.833243172  0.583294755  0.333342981
     0.833272803  0.583327754  0.833329795
     0.833319884  0.833321615  0.333365427
     0.833373897  0.833381431  0.833380755
     0.083364101  0.208382543  0.333369166
     0.083355577  0.208373032  0.833323623
     0.083387955  0.458335139  0.333369506
     0.083417770  0.458348972  0.833247190
     0.083352639  0.708315204  0.333450314
     0.083367542  0.708322181  0.833353449
     0.083345387  0.958339548  0.333362619
     0.083321192  0.958366033  0.833367894
     0.250012397  0.208345021  0.333386064
     0.249994982  0.208289729  0.833345996
     0.250152007  0.458343022  0.333339170
     0.250210649  0.458386902  0.833146144
     0.250045772  0.708322441  0.333410964
     0.250003215  0.708450278  0.833438017
     0.249989365  0.958337580  0.333363235
     0.249949605  0.958327843  0.833387381
     0.416640670  0.208292513  0.333302757
     0.416582944  0.208004690  0.833482302
     0.416110323  0.457912453  0.331989948
     0.417059989  0.458373573  0.831437778
     0.416681223  0.708353623  0.333333074
     0.416676004  0.708460856  0.833351353
     0.416645712  0.958307379  0.333357881
     0.416631483  0.958308041  0.833359227
     0.583359300  0.208292513  0.333302757
     0.583417026  0.208004690  0.833482302
     0.583889647  0.457912453  0.331989948
     0.582939981  0.458373573  0.831437778
     0.583318747  0.708353623  0.333333074
     0.583323966  0.708460856  0.833351353
     0.583354258  0.958307379  0.333357881
     0.583368487  0.958308041  0.833359227
     0.749987603  0.208345021  0.333386064
     0.750005018  0.208289729  0.833345996
     0.749847993  0.458343022  0.333339170
     0.749789351  0.458386902  0.833146144
     0.749954228  0.708322441  0.333410964
     0.749996785  0.708450278  0.833438017
     0.750010635  0.958337580  0.333363235
     0.750050395  0.958327843  0.833387381
     0.916635922  0.208382543  0.333369166
     0.916644446  0.208373032  0.833323623
     0.916612068  0.458335139  0.333369506
     0.916582253  0.458348972  0.833247190
     0.916647384  0.708315204  0.333450314
     0.916632481  0.708322181  0.833353449
     0.916654636  0.958339548  0.333362619
     0.916678831  0.958366033  0.833367894
     0.000000000  0.166699837  0.166683480
     0.000000000  0.166739363  0.666653237
     0.000000000  0.416668598  0.166648932
     0.000000000  0.416718785  0.666636467
     0.000000000  0.666651703  0.166744692
     0.000000000  0.666653412  0.666653844
     0.000000000  0.916675073  0.166703892
     0.000000000  0.916702889  0.666668870
     0.166659745  0.166690209  0.166684212
     0.166673160  0.166691410  0.666667804
     0.166697246  0.416671767  0.166606265
     0.167153260  0.416779329  0.666650179
     0.166621538  0.666683264  0.166860478
     0.166734690  0.666682637  0.666633299
     0.166656254  0.916671715  0.166701532
     0.166565353  0.916770355  0.666673929
     0.333321213  0.166650558  0.166674014
     0.333164375  0.166303605  0.666684873
     0.333180361  0.416541594  0.166112973
     0.335038768  0.417105272  0.666919981
     0.333330863  0.666696505  0.166680765
     0.333165473  0.667651037  0.666525111
     0.333326125  0.916666536  0.166694600
     0.333272862  0.916714492  0.666668275
     0.500000000  0.166606049  0.166737419
     0.500000000  0.166249577  0.666646574
     0.500000000  0.416568039  0.166087016
     0.500000000  0.666888831  0.166306495
     0.500000000  0.666847694  0.666714711
     0.500000000  0.916651931  0.166687303
     0.500000000  0.916704513  0.666644220
     0.666678817  0.166650558  0.166674014
     0.666835655  0.166303605  0.666684873
     0.666819669  0.416541594  0.166112973
     0.664961262  0.417105272  0.666919981
     0.666669167  0.666696505  0.166680765
     0.666834557  0.667651037  0.666525111
     0.666673905  0.916666536  0.166694600
     0.666727168  0.916714492  0.666668275
     0.833340240  0.166690209  0.166684212
     0.833326825  0.166691410  0.666667804
     0.833302739  0.416671767  0.166606265
     0.832846725  0.416779329  0.666650179
     0.833378447  0.666683264  0.166860478
     0.833265295  0.666682637  0.666633299
     0.833343731  0.916671715  0.166701532
     0.833434632  0.916770355  0.666673929
     0.083338675  0.041683437  0.166673871
     0.083318236  0.041725539  0.666659821
     0.083362690  0.291703157  0.166691461
     0.083397483  0.291723243  0.666618273
     0.083361129  0.541646652  0.166656139
     0.083313860  0.541650184  0.666643163
     0.083332792  0.791667118  0.166730251
     0.083324881  0.791682576  0.666670317
     0.249987258  0.041662335  0.166645512
     0.249907404  0.041589987  0.666648585
     0.250042262  0.291685439  0.166637510
     0.250209941  0.291662714  0.666614059
     0.250054706  0.541639369  0.166503404
     0.249948504  0.541583102  0.666515857
     0.249990532  0.791671394  0.166689466
     0.249842254  0.792009433  0.666639236
     0.416649747  0.041631232  0.166704996
     0.416620299  0.041543998  0.666658005
     0.416650414  0.291649196  0.166517470
     0.416233432  0.290492494  0.666653234
     0.416630671  0.541671586  0.166164004
     0.416651925  0.791693649  0.166644689
     0.416616019  0.791844592  0.666657017
     0.583350223  0.041631232  0.166704996
     0.583379671  0.041543998  0.666658005
     0.583349556  0.291649196  0.166517470
     0.583766538  0.290492494  0.666653234
     0.583369299  0.541671586  0.166164004
     0.583348045  0.791693649  0.166644689
     0.583383951  0.791844592  0.666657017
     0.750012742  0.041662335  0.166645512
     0.750092596  0.041589987  0.666648585
     0.749957738  0.291685439  0.166637510
     0.749790059  0.291662714  0.666614059
     0.749945294  0.541639369  0.166503404
     0.750051496  0.541583102  0.666515857
     0.750009468  0.791671394  0.166689466
     0.750157746  0.792009433  0.666639236
     0.916661348  0.041683437  0.166673871
     0.916681787  0.041725539  0.666659821
     0.916637333  0.291703157  0.166691461
     0.916602540  0.291723243  0.666618273
     0.916638894  0.541646652  0.166656139
     0.916686163  0.541650184  0.666643163
     0.916667231  0.791667118  0.166730251
     0.916675142  0.791682576  0.666670317
     0.000000000  0.000014126  0.125006397
     0.000000000  0.000047928  0.624993814
     0.000000000  0.250038560  0.125014576
     0.000000000  0.250068763  0.624969977
     0.000000000  0.499998877  0.124953665
     0.000000000  0.500056519  0.625012046
     0.000000000  0.749999182  0.125047999
     0.000000000  0.750011829  0.625030623
     0.166646392  0.000001204  0.124995057
     0.166574036  0.000018904  0.624995121
     0.166679468  0.250025681  0.124996988
     0.166741619  0.250081967  0.624978799
     0.166700697  0.500001520  0.124880030
     0.166718580  0.500121996  0.625046707
     0.166628777  0.750014854  0.125055039
     0.166640501  0.750072876  0.625012234
     0.333326589  0.999974649  0.125005684
     0.333288072  0.999952954  0.624992320
     0.333341795  0.249975616  0.124916989
     0.333185405  0.249429231  0.625030706
     0.333404865  0.499925093  0.124459024
     0.335595191  0.500737620  0.625571045
     0.333320365  0.750028454  0.124967069
     0.333006954  0.750499505  0.625088707
     0.500000000  0.999961208  0.125024739
     0.500000000  0.999923066  0.624994123
     0.500000000  0.249888998  0.125021957
     0.500000000  0.249313301  0.624942532
     0.500000000  0.499965345  0.124418047
     0.500000000  0.750086533  0.124766975
     0.500000000  0.750014406  0.625148475
     0.666673441  0.999974649  0.125005684
     0.666711958  0.999952954  0.624992320
     0.666658235  0.249975616  0.124916989
     0.666814625  0.249429231  0.625030706
     0.666595165  0.499925093  0.124459024
     0.664404839  0.500737620  0.625571045
     0.666679665  0.750028454  0.124967069
     0.666993076  0.750499505  0.625088707
     0.833353593  0.000001204  0.124995057
     0.833425949  0.000018904  0.624995121
     0.833320517  0.250025681  0.124996988
     0.833258366  0.250081967  0.624978799
     0.833299288  0.500001520  0.124880030
     0.833281405  0.500121996  0.625046707
     0.833371208  0.750014854  0.125055039
     0.833359484  0.750072876  0.625012234
     0.083323425  0.125021958  0.125001917
     0.083313051  0.125061213  0.624992449
     0.083344864  0.375022525  0.124949495
     0.083559937  0.375063986  0.624987801
     0.083317270  0.625006229  0.125053501
     0.083362613  0.625019598  0.625008826
     0.083312906  0.875003960  0.125033450
     0.083294307  0.875027486  0.625009801
     0.249985167  0.124996322  0.124991000
     0.249909653  0.124838735  0.625009724
     0.249961741  0.374969592  0.124649490
     0.251027764  0.375183454  0.625015935
     0.249893647  0.625075565  0.125141335
     0.250195022  0.625115525  0.624988819
     0.249982187  0.875003155  0.125012131
     0.249839192  0.875171895  0.625021362
     0.416661693  0.124934968  0.125045087
     0.416621290  0.124738938  0.624992042
     0.416640528  0.374962386  0.124481479
     0.418570185  0.373946381  0.626546609
     0.416667867  0.625095439  0.124712468
     0.416647531  0.624859890  0.625837494
     0.416660255  0.875001074  0.124978488
     0.416648877  0.875050730  0.625018603
     0.583338277  0.124934968  0.125045087
     0.583378680  0.124738938  0.624992042
     0.583359442  0.374962386  0.124481479
     0.581429785  0.373946381  0.626546609
     0.583332103  0.625095439  0.124712468
     0.583352439  0.624859890  0.625837494
     0.583339715  0.875001074  0.124978488
     0.583351093  0.875050730  0.625018603
     0.750014833  0.124996322  0.124991000
     0.750090347  0.124838735  0.625009724
     0.750038259  0.374969592  0.124649490
     0.748972236  0.375183454  0.625015935
     0.750106353  0.625075565  0.125141335
     0.749804978  0.625115525  0.624988819
     0.750017813  0.875003155  0.125012131
     0.750160808  0.875171895  0.625021362
     0.916676598  0.125021958  0.125001917
     0.916686972  0.125061213  0.624992449
     0.916655159  0.375022525  0.124949495
     0.916440086  0.375063986  0.624987801
     0.916682753  0.625006229  0.125053501
     0.916637410  0.625019598  0.625008826
     0.916687117  0.875003960  0.125033450
     0.916705716  0.875027486  0.625009801
     0.000000000  0.083374130  0.458338304
     0.000000000  0.083356939  0.958339551
     0.000000000  0.333410960  0.458394918
     0.000000000  0.333356997  0.958270776
     0.000000000  0.583330030  0.458362353
     0.000000000  0.583347494  0.958347916
     0.000000000  0.833321382  0.458374925
     0.000000000  0.833336241  0.958363139
     0.166645931  0.083341263  0.458309593
     0.166640274  0.083327161  0.958331388
     0.166920328  0.333443676  0.458446876
     0.166685236  0.333335024  0.958147951
     0.166840941  0.583331021  0.458363503
     0.166646608  0.583376360  0.958355396
     0.166660492  0.833322291  0.458343474
     0.166616347  0.833355246  0.958372045
     0.333313238  0.083270650  0.458301602
     0.333302201  0.083243910  0.958374456
     0.333820521  0.333456284  0.458927043
     0.333364466  0.333276784  0.958075577
     0.333734938  0.583293641  0.458421852
     0.333010200  0.583592484  0.958689207
     0.333330221  0.833314472  0.458305193
     0.333301263  0.833362897  0.958325114
     0.500000000  0.083239749  0.458323993
     0.500000000  0.083226343  0.958391915
     0.500000000  0.333266447  0.458243742
     0.500000000  0.332927409  0.958480386
     0.500000000  0.583262783  0.456323999
     0.500000000  0.583478906  0.957944130
     0.500000000  0.833246892  0.458366917
     0.500000000  0.833370183  0.958265525
     0.666686792  0.083270650  0.458301602
     0.666697829  0.083243910  0.958374456
     0.666179509  0.333456284  0.458927043
     0.666635564  0.333276784  0.958075577
     0.666265092  0.583293641  0.458421852
     0.666989830  0.583592484  0.958689207
     0.666669809  0.833314472  0.458305193
     0.666698767  0.833362897  0.958325114
     0.833354054  0.083341263  0.458309593
     0.833359711  0.083327161  0.958331388
     0.833079657  0.333443676  0.458446876
     0.833314749  0.333335024  0.958147951
     0.833159044  0.583331021  0.458363503
     0.833353377  0.583376360  0.958355396
     0.833339493  0.833322291  0.458343474
     0.833383638  0.833355246  0.958372045
     0.083366634  0.208398814  0.458350751
     0.083344099  0.208358132  0.958327173
     0.083463402  0.458386423  0.458365031
     0.083382424  0.458344105  0.958237918
     0.083363120  0.708320576  0.458397973
     0.083337872  0.708337996  0.958364750
     0.083327223  0.958340672  0.458341729
     0.083321343  0.958345429  0.958358601
     0.250040546  0.208341168  0.458349234
     0.249991371  0.208304517  0.958324652
     0.250545544  0.458522330  0.458598095
     0.250107965  0.458331925  0.958038813
     0.250082714  0.708305903  0.458395497
     0.249932281  0.708408050  0.958434881
     0.249965415  0.958325864  0.458339064
     0.249967287  0.958321997  0.958376574
     0.416668344  0.208230365  0.458292582
     0.416639440  0.208134808  0.958427605
     0.416947386  0.458318889  0.456257524
     0.417037885  0.458220014  0.957163492
     0.416715552  0.708124673  0.458509880
     0.416640691  0.708418424  0.958248128
     0.416644350  0.958285435  0.458331966
     0.416640482  0.958303855  0.958351984
     0.583331626  0.208230365  0.458292582
     0.583360530  0.208134808  0.958427605
     0.583052584  0.458318889  0.456257524
     0.582962085  0.458220014  0.957163492
     0.583284418  0.708124673  0.458509880
     0.583359279  0.708418424  0.958248128
     0.583355620  0.958285435  0.458331966
     0.583359488  0.958303855  0.958351984
     0.749959454  0.208341168  0.458349234
     0.750008629  0.208304517  0.958324652
     0.749454456  0.458522330  0.458598095
[...]
 196      -0.006    -0.002     0.006       0.610
 197       0.006     0.004    -0.028       0.076
 198      -0.001     0.001    -0.001      -1.350
 199      -0.003    -0.002     0.004       0.096
 200       0.002     0.001    -0.002       0.472
 201       0.003     0.001    -0.006       0.432
 202       0.004    -0.004    -0.007       1.187
 203       0.014     0.011    -0.032       0.092
 204      -0.009     0.002    -0.017      -0.629
 205      -0.068    -0.066    -0.155      -0.012
 206       0.001     0.000    -0.002       0.375
 207      -0.015    -0.010    -0.026      -0.196
 208       0.003    -0.001    -0.004       1.046
 209       0.005     0.005    -0.011       0.082
 210      -0.007    -0.002    -0.023      -0.189
 211      -0.316    -0.279    -0.493      -0.075
 212       0.006     0.002    -0.018       0.248
 213      -1.775    -1.748    -2.534      -0.010
 214       0.003    -0.001    -0.004       1.045
 215      -0.008     0.007     0.009       1.745
 216      -0.004    -0.001     0.005       0.636
 217       0.006     0.006    -0.013       0.019
 218       0.009     0.008    -0.017       0.051
 219       0.009     0.008    -0.016       0.039
 220       0.173    -0.032    -0.192       1.073
 221       0.004    -0.001    -0.004       1.289
 222       0.010    -0.008     0.011      -1.631
 223       0.003    -0.001    -0.004       1.046
 224       0.005     0.005    -0.011       0.082
 225      -0.007    -0.002    -0.023      -0.189
 226      -0.316    -0.279    -0.493      -0.075
 227       0.006     0.002    -0.018       0.248
 228      -1.775    -1.748    -2.534      -0.010
 229       0.003    -0.001    -0.004       1.045
 230      -0.008     0.007     0.009       1.745
 231       0.002     0.001    -0.002       0.472
 232       0.003     0.001    -0.006       0.432
 233       0.004    -0.004    -0.007       1.187
 234       0.014     0.011    -0.032       0.092
 235      -0.009     0.002    -0.017      -0.629
 236      -0.068    -0.066    -0.155      -0.012
 237       0.001     0.000    -0.002       0.375
 238      -0.015    -0.010    -0.026      -0.196
 239       0.001     0.001    -0.002       0.279
 240      -0.004    -0.000     0.004       0.856
 241      -0.001    -0.001     0.002       0.398
 242       0.005     0.001    -0.008       0.559
 243      -0.005    -0.004     0.008       0.082
 244      -0.053    -0.050    -0.199      -0.015
 245       0.002    -0.001    -0.004       0.737
 246       0.003    -0.001    -0.016       0.279
 247       0.002     0.001    -0.003       0.409
 248       0.006    -0.003     0.007      -1.191
 249      -0.002    -0.000     0.004       0.415
 250       0.007     0.005    -0.019       0.077
 251      -0.020    -0.010    -0.034      -0.287
 252      -2.074    -2.059    -2.996      -0.005
 253       0.003    -0.002    -0.004       1.335
 254      -0.110    -0.103    -0.183      -0.040
 255       0.003     0.000    -0.005       0.671
 256       0.005     0.005    -0.009       0.008
 257       0.004    -0.003    -0.008       0.892
 258       0.023     0.020    -0.026       0.133
 259       0.012     0.007    -0.025       0.208
 260       0.004    -0.001    -0.008       0.724
 261       0.026    -0.007     0.039      -0.852
 262       0.003     0.000    -0.005       0.671
 263       0.005     0.005    -0.009       0.008
 264       0.004    -0.003    -0.008       0.892
 265       0.023     0.020    -0.026       0.133
 266       0.012     0.007    -0.025       0.208
 267       0.004    -0.001    -0.008       0.724
 268       0.026    -0.007     0.039      -0.852
 269       0.002     0.001    -0.003       0.409
 270       0.006    -0.003     0.007      -1.191
 271      -0.002    -0.000     0.004       0.415
 272       0.007     0.005    -0.019       0.077
 273      -0.020    -0.010    -0.034      -0.287
 274      -2.074    -2.059    -2.996      -0.005
 275       0.003    -0.002    -0.004       1.335
 276      -0.110    -0.103    -0.183      -0.040
 277       0.001     0.001    -0.002       0.279
 278      -0.004    -0.000     0.004       0.856
 279      -0.001    -0.001     0.002       0.398
 280       0.005     0.001    -0.008       0.559
 281      -0.005    -0.004     0.008       0.082
 282      -0.053    -0.050    -0.199      -0.015
 283       0.002    -0.001    -0.004       0.737
 284       0.003    -0.001    -0.016       0.279
 285       0.002     0.001    -0.002       0.551
 286      -0.002     0.001     0.005       0.551
 287       0.001    -0.000    -0.001       0.503
 288      -0.003    -0.000     0.005       0.484
 289      -0.004    -0.000     0.010       0.325
 290       0.034     0.031    -0.089       0.031
 291      -0.001     0.000     0.005       0.315
 292       0.006    -0.005     0.010      -1.075
 293       0.001     0.001    -0.003       0.133
 294      -0.009    -0.007    -0.017      -0.123
 295       0.002    -0.001    -0.002       1.263
 296       0.006    -0.005     0.009      -1.140
 297      -0.006    -0.001     0.010       0.577
 298      -0.378    -0.376    -0.652      -0.004
 299      -0.002     0.001     0.006       0.490
 300       0.019    -0.004     0.022      -1.022
 301       0.003     0.000    -0.004       0.636
 302       0.003     0.003    -0.009       0.081
 303      -0.003    -0.001     0.005       0.474
 304      -0.006    -0.004    -0.034      -0.063
 305      -0.013     0.010     0.016       1.488
 306       0.450    -0.107     0.484      -1.151
 307      -0.007     0.002     0.007       1.299
 308      -0.220    -0.215    -0.355      -0.014
 309      -0.004     0.001     0.005       1.068
 310       0.006     0.005    -0.009       0.034
 311      -0.004    -0.001     0.007       0.487
 312      -0.015     0.014     0.018       1.600
 313       0.018     0.014    -0.019       0.215
 314      -0.007     0.005     0.009       1.325
 315       0.087     0.056     0.107      -0.286
 316       0.003     0.000    -0.004       0.636
 317       0.003     0.003    -0.009       0.081
 318      -0.003    -0.001     0.005       0.474
 319      -0.006    -0.004    -0.034      -0.063
 320      -0.013     0.010     0.016       1.488
 321       0.450    -0.107     0.484      -1.151
 322      -0.007     0.002     0.007       1.299
 323      -0.220    -0.215    -0.355      -0.014
 324       0.001     0.001    -0.003       0.133
 325      -0.009    -0.007    -0.017      -0.123
 326       0.002    -0.001    -0.002       1.263
 327       0.006    -0.005     0.009      -1.140
 328      -0.006    -0.001     0.010       0.577
 329      -0.378    -0.376    -0.652      -0.004
 330      -0.002     0.001     0.006       0.490
 331       0.019    -0.004     0.022      -1.022
 332       0.001     0.001    -0.002       0.346
 333       0.004     0.000    -0.004       0.875
 334      -0.002    -0.001     0.005       0.284
 335      -0.009     0.008     0.012       1.392
 336      -0.003    -0.001     0.009       0.206
 337       0.023    -0.007     0.026      -1.168
 338       0.001    -0.001     0.001      -1.356
 339      -0.002     0.002     0.007       0.655
 340       0.002     0.001    -0.003       0.561
 341       0.002     0.000    -0.009       0.177
 342       0.007    -0.000    -0.007       0.972
 343       0.058     0.019     0.065      -0.594
 344      -0.030    -0.022    -0.060      -0.132
 345       0.135     0.040     0.141      -0.679
 346       0.002    -0.001    -0.004       0.826
 347      -0.036    -0.034    -0.065      -0.042
 348      -0.004     0.000     0.004       1.005
 349       0.006     0.005    -0.010       0.013
 350      -0.002     0.001    -0.021      -0.173
 351      -0.064    -0.012    -0.158      -0.330
 352       0.010     0.006    -0.024       0.165
 353       1.066     0.838     1.128      -0.202
 354      -0.004     0.003    -0.006      -1.067
 355       0.005     0.004    -0.018       0.088
 356      -0.004     0.000     0.004       1.005
 357       0.006     0.005    -0.010       0.013
 358      -0.002     0.001    -0.021      -0.173
 359      -0.064    -0.012    -0.158      -0.330
 360       0.010     0.006    -0.024       0.165
 361       1.066     0.838     1.128      -0.202
 362      -0.004     0.003    -0.006      -1.067
 363       0.005     0.004    -0.018       0.088
 364       0.002     0.001    -0.003       0.561
 365       0.002     0.000    -0.009       0.177
 366       0.007    -0.000    -0.007       0.972
 367       0.058     0.019     0.065      -0.594
 368      -0.030    -0.022    -0.060      -0.132
 369       0.135     0.040     0.141      -0.679
 370       0.002    -0.001    -0.004       0.826
 371      -0.036    -0.034    -0.065      -0.042
 372       0.001     0.001    -0.002       0.346
 373       0.004     0.000    -0.004       0.875
 374      -0.002    -0.001     0.005       0.284
 375      -0.009     0.008     0.012       1.392
 376      -0.003    -0.001     0.009       0.206
 377       0.023    -0.007     0.026      -1.168
 378       0.001    -0.001     0.001      -1.356
 379      -0.002     0.002     0.007       0.655
 380       0.003     0.000    -0.003       0.996
 381       0.002     0.000    -0.002       0.809
 382       0.005     0.001    -0.007       0.623
 383      -0.003     0.001     0.004       0.885
 384      -0.010     0.004     0.012       1.110
 385      -0.006     0.003     0.012       0.747
 386      -0.001     0.001     0.005       0.472
 387      -0.001     0.001     0.004       0.380
 388       0.003     0.001    -0.004       0.408
 389       0.002     0.001    -0.003       0.266
 390       0.002    -0.001    -0.020       0.168
 391       0.005     0.002    -0.008       0.327
 392       0.017     0.009    -0.021       0.417
 393       0.015    -0.005     0.024      -0.819
 394       0.005     0.004    -0.006       0.192
 395       0.004    -0.003     0.005      -1.459
 396       0.004     0.003    -0.006       0.150
 397       0.004     0.002    -0.005       0.325
 398       0.006     0.003    -0.034       0.101
 399      -0.011     0.010     0.013       1.646
 400       0.086    -0.005     0.099      -0.918
 401      -0.196    -0.188    -0.331      -0.026
 402       0.009    -0.008     0.011      -1.551
 403       0.002     0.000    -0.013       0.143
 404       0.005     0.003    -0.008       0.234
 405       0.005     0.002    -0.006       0.425
 406       0.017     0.016    -0.028       0.019
 407       0.012     0.011    -0.016       0.067
 408       0.090    -0.034     0.112      -1.110
 409       0.087     0.052     0.111      -0.322
 410       0.011    -0.009     0.012      -1.742
 411       0.009    -0.007     0.011      -1.373
 412       0.004     0.003    -0.006       0.150
 413       0.004     0.002    -0.005       0.325
 414       0.006     0.003    -0.034       0.101
 415      -0.011     0.010     0.013       1.646
 416       0.086    -0.005     0.099      -0.918
 417      -0.196    -0.188    -0.331      -0.026
 418       0.009    -0.008     0.011      -1.551
 419       0.002     0.000    -0.013       0.143
 420       0.003     0.001    -0.004       0.408
 421       0.002     0.001    -0.003       0.266
 422       0.002    -0.001    -0.020       0.168
 423       0.005     0.002    -0.008       0.327
 424       0.017     0.009    -0.021       0.417
 425       0.015    -0.005     0.024      -0.819
 426       0.005     0.004    -0.006       0.192
 427       0.004    -0.003     0.005      -1.459
 428       0.003    -0.000    -0.004       0.837
 429      -0.002     0.000     0.002       1.138
 430      -0.012     0.005     0.013       1.259
 431      -0.008     0.003     0.010       1.016
 432      -0.007     0.004     0.008       1.367
 433      -0.004     0.004     0.009       0.878
 434       0.003     0.000    -0.003       0.835
 435      -0.002     0.001     0.003       1.113
 436       0.003     0.002    -0.009       0.127
 437       0.004     0.003    -0.005       0.178
 438       0.058     0.019     0.069      -0.557
 439       0.015     0.010    -0.021       0.230
 440      -0.017     0.015     0.018       1.777
 441       0.020    -0.002     0.022      -0.988
 442       0.004     0.003    -0.005       0.113
 443       0.003     0.002    -0.005       0.162
 444       0.006     0.005    -0.011       0.130
 445       0.006     0.003    -0.008       0.383
 446      -0.291    -0.222    -0.446      -0.154
 447      -0.030     0.027     0.034       1.667
 448       0.029     0.024    -0.030       0.186
 449       0.020    -0.013     0.022      -1.528
 450       0.005     0.004    -0.007       0.203
 451       0.004     0.002    -0.007       0.362
 452       0.006     0.005    -0.011       0.130
 453       0.006     0.003    -0.008       0.383
 454      -0.291    -0.222    -0.446      -0.154
 455      -0.030     0.027     0.034       1.667
 456       0.029     0.024    -0.030       0.186
 457       0.020    -0.013     0.022      -1.528
 458       0.005     0.004    -0.007       0.203
 459       0.004     0.002    -0.007       0.362
 460       0.003     0.002    -0.009       0.127
 461       0.004     0.003    -0.005       0.178
 462       0.058     0.019     0.069      -0.557
 463       0.015     0.010    -0.021       0.230
 464      -0.017     0.015     0.018       1.777
 465       0.020    -0.002     0.022      -0.988
 466       0.004     0.003    -0.005       0.113
 467       0.003     0.002    -0.005       0.162
 468       0.003    -0.000    -0.004       0.837
 469      -0.002     0.000     0.002       1.138
 470      -0.012     0.005     0.013       1.259
 471      -0.008     0.003     0.010       1.016
 472      -0.007     0.004     0.008       1.367
 473      -0.004     0.004     0.009       0.878
 474       0.003     0.000    -0.003       0.835
 475      -0.002     0.001     0.003       1.113
 476       0.001    -0.001    -0.001       1.273
 477      -0.001    -0.000     0.005       0.298
 478      -0.004    -0.001     0.006       0.505
 479       0.010     0.005    -0.011       0.466
 480      -0.003    -0.000     0.008       0.421
 481       0.010    -0.007     0.014      -1.244
 482      -0.001     0.000     0.002       0.673
 483      -0.001    -0.000     0.005       0.240
 484       0.001     0.001    -0.003       0.133
 485       0.004     0.002    -0.005       0.492
 486      -0.004     0.003     0.010       0.734
 487       0.015     0.010    -0.021       0.239
 488      -0.004     0.004    -0.014      -0.593
 489       0.018    -0.015     0.021      -1.558
 490       0.002     0.001    -0.003       0.185
 491      -0.004     0.004     0.006       1.262
 492       0.004     0.001    -0.005       0.630
 493       0.005     0.005    -0.009       0.040
 494      -0.023    -0.015    -0.051      -0.154
 495       0.088    -0.001     0.097      -0.925
 496       0.014     0.010    -0.015       0.262
 497       0.148     0.057     0.154      -0.589
 498       0.004     0.001    -0.004       0.763
 499       0.006     0.005    -0.009       0.016
 500       0.005     0.001    -0.006       0.779
 501       0.008     0.007    -0.010       0.083
 502       0.016    -0.013     0.023      -1.264
 503       0.103    -0.022     0.121      -1.034
 504       0.015     0.014    -0.019       0.064
 505       0.137     0.051     0.169      -0.505
 506      -0.005     0.001     0.005       1.066
 507       0.008     0.008    -0.008       0.000
 508       0.004     0.001    -0.005       0.630
 509       0.005     0.005    -0.009       0.040
 510      -0.023    -0.015    -0.051      -0.154
 511       0.088    -0.001     0.097      -0.925
 512       0.014     0.010    -0.015       0.262
 513       0.148     0.057     0.154      -0.589
 514       0.004     0.001    -0.004       0.763
 515       0.006     0.005    -0.009       0.016
 516       0.001     0.001    -0.003       0.133
 517       0.004     0.002    -0.005       0.492
 518      -0.004     0.003     0.010       0.734
 519       0.015     0.010    -0.021       0.239
 520      -0.004     0.004    -0.014      -0.593
 521       0.018    -0.015     0.021      -1.558
 522       0.002     0.001    -0.003       0.185
 523      -0.004     0.004     0.006       1.262
 524       0.002     0.001    -0.002       0.423
 525      -0.003     0.001     0.003       1.104
 526       0.002    -0.000    -0.004       0.531
 527      -0.005     0.002     0.006       1.211
 528      -0.007    -0.001     0.009       0.631
 529       0.021    -0.007     0.029      -0.957
 530      -0.002     0.001     0.003       0.841
 531       0.005    -0.004     0.009      -0.987
 532       0.002     0.001    -0.004       0.317
 533       0.004     0.003    -0.006       0.195
 534       0.004     0.001    -0.007       0.356
 535      -0.011     0.010     0.012       1.774
 536      -0.012     0.008     0.017       1.209
 537       0.142     0.049     0.152      -0.611
 538       0.004     0.001    -0.007       0.416
 539       0.021    -0.003     0.022      -1.072
 540       0.004     0.001    -0.005       0.619
 541       0.005     0.004    -0.008       0.085
 542       0.006     0.002    -0.010       0.392
 543       0.018     0.018    -0.019       0.016
 544      -0.022     0.021     0.026       1.697
 545       1.158     0.930     1.221      -0.187
 546       0.005     0.001    -0.013       0.345
 547       0.021    -0.013     0.024      -1.397
 548       0.004     0.001    -0.005       0.619
 549       0.005     0.004    -0.008       0.085
 550       0.006     0.002    -0.010       0.392
 551       0.018     0.018    -0.019       0.016
 552      -0.022     0.021     0.026       1.698
 553       1.158     0.930     1.221      -0.187
 554       0.005     0.001    -0.013       0.345
 555       0.021    -0.013     0.024      -1.397
 556       0.002     0.001    -0.004       0.317
 557       0.004     0.003    -0.006       0.195
 558       0.004     0.001    -0.007       0.356
 559      -0.011     0.010     0.012       1.774
 560      -0.012     0.008     0.017       1.209
 561       0.142     0.049     0.152      -0.611
 562       0.004     0.001    -0.007       0.416
 563       0.021    -0.003     0.022      -1.072
 564       0.002     0.001    -0.002       0.423
 565      -0.003     0.001     0.003       1.104
 566       0.002    -0.000    -0.004       0.531
 567      -0.005     0.002     0.006       1.211
 568      -0.007    -0.001     0.009       0.631
 569       0.021    -0.007     0.029      -0.957
 570      -0.002     0.001     0.003       0.841
 571       0.005    -0.004     0.009      -0.987
 572       0.652     0.563     0.771      -0.116
 573      -0.241    -0.037     0.402       0.506
 574     -14.786   -14.740   -25.878      -0.002
 575     -14.786   -14.740   -25.878      -0.002
 576       0.647     0.555     0.757      -0.122
 ---------------------------------------------------------------------



--------------------------------------------------------------------------------------------------------


     LOOP+:  cpu time 1396.8268: real time 1400.7793
    4ORBIT:  cpu time    0.0000: real time    0.0000

 total amount of memory used by VASP MPI-rank0   238703. kBytes
=======================================================================

   base      :      30000. kBytes
   nonlr-proj:       9226. kBytes
   fftplans  :      15014. kBytes
   grid      :      46644. kBytes
   one-center:        294. kBytes
   wavefun   :     137525. kBytes
 
  
  
 General timing and accounting informations for this job:
 ========================================================
  
                  Total CPU time used (sec):     1429.317
                            User time (sec):     1428.263
                          System time (sec):        1.054
                         Elapsed time (sec):     1433.883
  
                   Maximum memory used (kb):      434480.
                   Average memory used (kb):          N/A
  
                          Minor page faults:       220365
                          Major page faults:            0
                 Voluntary context switches:        14580
