 vasp.6.2.0 18Jan21 (build Apr 30 2021 19:00:08) gamma-only                     
  
 executed on             LinuxIFC date 2022.12.30  16:22:35
 running on   24 total cores
 distrk:  each k-point on   24 cores,    1 groups
 distr:  one band on NCORE=   6 cores,    4 groups


--------------------------------------------------------------------------------------------------------


 INCAR:
   SYSTEM = Diamond
   PREC = Normal
   ISTART = 0
   ICHARG = 11
   ISPIN = 2
   MAGMOM = 572*0.0 1*2.0 2*2.0 1*3
   NPAR = 4
   NELECT = 2303
   LHYPERFINE = T
   LEFG = T
   ENCUT = 700
   NELM = 1000
   NELMIN = 4
   EDIFF = 1E-06
   LREAL = Auto
   ALGO = Normal
   EDIFFG = -1E-02
   NSW = 0
   IBRION = 2
   ISIF = 2
   ISYM = 2
   POTIM = 0.5
   ISMEAR = 0
   SIGMA = 0.05
   NEDOS = 1000
   LWAVE = F
   LCHARG = F
   LVHAR = F
   LELF = F

 POTCAR:    PAW_PBE C 08Apr2002                   
 POTCAR:    PAW_PBE H 15Jun2001                   
 POTCAR:    PAW_PBE C 08Apr2002                   
 POTCAR:    PAW_PBE N 08Apr2002                   
 POTCAR:    PAW_PBE C 08Apr2002                   
   VRHFIN =C: s2p2                                                                                  
   LEXCH  = PE                                                                                      
   EATOM  =   147.1560 eV,   10.8157 Ry                                                             
                                                                                                    
   TITEL  = PAW_PBE C 08Apr2002                                                                     
   LULTRA =        F    use ultrasoft PP ?                                                          
   IUNSCR =        1    unscreen: 0-lin 1-nonlin 2-no                                               
   RPACOR =    1.200    partial core radius                                                         
   POMASS =   12.011; ZVAL   =    4.000    mass and valenz                                          
   RCORE  =    1.500    outmost cutoff radius                                                       
   RWIGS  =    1.630; RWIGS  =    0.863    wigner-seitz radius (au A)                               
   ENMAX  =  400.000; ENMIN  =  300.000 eV                                                          
   ICORE  =        2    local potential                                                             
   LCOR   =        T    correct aug charges                                                         
   LPAW   =        T    paw PP                                                                      
   EAUG   =  644.873                                                                                
   DEXC   =    0.000                                                                                
   RMAX   =    1.529    core radius for proj-oper                                                   
   RAUG   =    1.300    factor for augmentation sphere                                              
   RDEP   =    1.501    radius for radial grids                                                     
   RDEPT  =    1.300    core radius for aug-charge                                                  
                                                                                                    
   Atomic configuration                                                                             
    4 entries                                                                                       
     n  l   j            E        occ.                                                              
     1  0  0.50      -273.3789   2.0000                                                             
     2  0  0.50       -13.7508   2.0000                                                             
     2  1  0.50        -5.2854   2.0000                                                             
     3  2  1.50        -5.4423   0.0000                                                             
   Description                                                                                      
     l       E           TYP  RCUT    TYP  RCUT                                                     
     0    -13.7508458     23  1.200                                                                 
     0     -8.2022199     23  1.200                                                                 
     1     -5.2854383     23  1.500                                                                 
     1     34.0145650     23  1.500                                                                 
     2     -5.4423304      7  1.500                                                                 
  local pseudopotential read in
  partial core-charges read in
  partial kinetic energy density read in
  atomic valenz-charges read in
  non local Contribution for L=           0  read in
    real space projection operators read in
  non local Contribution for L=           0  read in
    real space projection operators read in
  non local Contribution for L=           1  read in
    real space projection operators read in
  non local Contribution for L=           1  read in
    real space projection operators read in
    PAW grid and wavefunctions read in
 
   number of l-projection  operators is LMAX  =           4
   number of lm-projection operators is LMMAX =           8
 
 POTCAR:    PAW_PBE H 15Jun2001                   
   VRHFIN =H: ultrasoft test                                                                        
   LEXCH  = PE                                                                                      
   EATOM  =    12.4884 eV,    0.9179 Ry                                                             
                                                                                                    
   TITEL  = PAW_PBE H 15Jun2001                                                                     
   LULTRA =        F    use ultrasoft PP ?                                                          
   IUNSCR =        0    unscreen: 0-lin 1-nonlin 2-no                                               
   RPACOR =    0.000    partial core radius                                                         
   POMASS =    1.000; ZVAL   =    1.000    mass and valenz                                          
   RCORE  =    1.100    outmost cutoff radius                                                       
   RWIGS  =    0.700; RWIGS  =    0.370    wigner-seitz radius (au A)                               
   ENMAX  =  250.000; ENMIN  =  200.000 eV                                                          
   RCLOC  =    0.701    cutoff for local pot                                                        
   LCOR   =        T    correct aug charges                                                         
   LPAW   =        T    paw PP                                                                      
   EAUG   =  400.000                                                                                
   RMAX   =    1.123    core radius for proj-oper                                                   
   RAUG   =    1.200    factor for augmentation sphere                                              
   RDEP   =    1.112    radius for radial grids                                                     
   RDEPT  =    0.926    core radius for aug-charge                                                  
                                                                                                    
   Atomic configuration                                                                             
    2 entries                                                                                       
     n  l   j            E        occ.                                                              
     1  0  0.50        -6.4927   1.0000                                                             
     2  1  0.50        -3.4015   0.0000                                                             
   Description                                                                                      
     l       E           TYP  RCUT    TYP  RCUT                                                     
     0     -6.4927494     23  1.100                                                                 
     0      6.8029130     23  1.100                                                                 
     1     -4.0817478     23  1.100                                                                 
  local pseudopotential read in
  atomic valenz-charges read in
  non local Contribution for L=           0  read in
    real space projection operators read in
  non local Contribution for L=           0  read in
    real space projection operators read in
  non local Contribution for L=           1  read in
    real space projection operators read in
    PAW grid and wavefunctions read in
 
   number of l-projection  operators is LMAX  =           3
   number of lm-projection operators is LMMAX =           5
 
 POTCAR:    PAW_PBE C 08Apr2002                   
   VRHFIN =C: s2p2                                                                                  
   LEXCH  = PE                                                                                      
   EATOM  =   147.1560 eV,   10.8157 Ry                                                             
                                                                                                    
   TITEL  = PAW_PBE C 08Apr2002                                                                     
   LULTRA =        F    use ultrasoft PP ?                                                          
   IUNSCR =        1    unscreen: 0-lin 1-nonlin 2-no                                               
   RPACOR =    1.200    partial core radius                                                         
   POMASS =   12.011; ZVAL   =    4.000    mass and valenz                                          
   RCORE  =    1.500    outmost cutoff radius                                                       
   RWIGS  =    1.630; RWIGS  =    0.863    wigner-seitz radius (au A)                               
   ENMAX  =  400.000; ENMIN  =  300.000 eV                                                          
   ICORE  =        2    local potential                                                             
   LCOR   =        T    correct aug charges                                                         
   LPAW   =        T    paw PP                                                                      
   EAUG   =  644.873                                                                                
   DEXC   =    0.000                                                                                
   RMAX   =    1.529    core radius for proj-oper                                                   
   RAUG   =    1.300    factor for augmentation sphere                                              
   RDEP   =    1.501    radius for radial grids                                                     
   RDEPT  =    1.300    core radius for aug-charge                                                  
                                                                                                    
   Atomic configuration                                                                             
    4 entries                                                                                       
     n  l   j            E        occ.                                                              
     1  0  0.50      -273.3789   2.0000                                                             
     2  0  0.50       -13.7508   2.0000                                                             
     2  1  0.50        -5.2854   2.0000                                                             
     3  2  1.50        -5.4423   0.0000                                                             
   Description                                                                                      
     l       E           TYP  RCUT    TYP  RCUT                                                     
     0    -13.7508458     23  1.200                                                                 
     0     -8.2022199     23  1.200                                                                 
     1     -5.2854383     23  1.500                                                                 
     1     34.0145650     23  1.500                                                                 
     2     -5.4423304      7  1.500                                                                 
  local pseudopotential read in
  partial core-charges read in
  partial kinetic energy density read in
  atomic valenz-charges read in
  non local Contribution for L=           0  read in
    real space projection operators read in
  non local Contribution for L=           0  read in
    real space projection operators read in
  non local Contribution for L=           1  read in
    real space projection operators read in
  non local Contribution for L=           1  read in
    real space projection operators read in
    PAW grid and wavefunctions read in
 
   number of l-projection  operators is LMAX  =           4
   number of lm-projection operators is LMMAX =           8
 
 POTCAR:    PAW_PBE N 08Apr2002                   
   VRHFIN =N: s2p3                                                                                  
   LEXCH  = PE                                                                                      
   EATOM  =   264.5486 eV,   19.4438 Ry                                                             
                                                                                                    
   TITEL  = PAW_PBE N 08Apr2002                                                                     
   LULTRA =        F    use ultrasoft PP ?                                                          
   IUNSCR =        1    unscreen: 0-lin 1-nonlin 2-no                                               
   RPACOR =    1.200    partial core radius                                                         
   POMASS =   14.001; ZVAL   =    5.000    mass and valenz                                          
   RCORE  =    1.500    outmost cutoff radius                                                       
   RWIGS  =    1.400; RWIGS  =    0.741    wigner-seitz radius (au A)                               
   ENMAX  =  400.000; ENMIN  =  300.000 eV                                                          
   ICORE  =        2    local potential                                                             
   LCOR   =        T    correct aug charges                                                         
   LPAW   =        T    paw PP                                                                      
   EAUG   =  627.112                                                                                
   DEXC   =    0.000                                                                                
   RMAX   =    1.529    core radius for proj-oper                                                   
   RAUG   =    1.300    factor for augmentation sphere                                              
   RDEP   =    1.514    radius for radial grids                                                     
   RDEPT  =    1.338    core radius for aug-charge                                                  
                                                                                                    
   Atomic configuration                                                                             
    4 entries                                                                                       
     n  l   j            E        occ.                                                              
     1  0  0.50      -384.7179   2.0000                                                             
     2  0  0.50       -18.5828   2.0000                                                             
     2  1  0.50        -7.0898   3.0000                                                             
     3  2  1.50        -6.8029   0.0000                                                             
   Description                                                                                      
     l       E           TYP  RCUT    TYP  RCUT                                                     
     0    -18.5828119     23  1.200                                                                 
     0    -13.5018863     23  1.200                                                                 
     1     -7.0897853     23  1.500                                                                 
     1      9.5240782     23  1.500                                                                 
     2     -6.8029130      7  1.500                                                                 
  local pseudopotential read in
  partial core-charges read in
  partial kinetic energy density read in
  atomic valenz-charges read in
  non local Contribution for L=           0  read in
    real space projection operators read in
  non local Contribution for L=           0  read in
    real space projection operators read in
  non local Contribution for L=           1  read in
    real space projection operators read in
  non local Contribution for L=           1  read in
    real space projection operators read in
    PAW grid and wavefunctions read in
 
   number of l-projection  operators is LMAX  =           4
   number of lm-projection operators is LMMAX =           8
 
 Optimization of the real space projectors (new method)

 maximal supplied QI-value         = 25.13
 optimisation between [QCUT,QGAM] = [ 13.32, 26.89] = [ 49.69,202.52] Ry 
 Optimized for a Real-space Cutoff    1.01 Angstroem

   l    n(q)    QCUT    max X(q) W(low)/X(q) W(high)/X(q)  e(spline) 
   0      8    13.321   115.676    0.29E-03    0.42E-03    0.11E-06
   0      8    13.321    87.132    0.29E-03    0.42E-03    0.11E-06
   1      8    13.321     4.429    0.39E-03    0.33E-03    0.98E-07
   1      8    13.321     2.733    0.30E-03    0.26E-03    0.97E-07
 Optimization of the real space projectors (new method)

 maximal supplied QI-value         = 34.20
 optimisation between [QCUT,QGAM] = [ 13.34, 27.02] = [ 49.83,204.46] Ry 
 Optimized for a Real-space Cutoff    0.93 Angstroem

   l    n(q)    QCUT    max X(q) W(low)/X(q) W(high)/X(q)  e(spline) 
   0      7    13.340    19.460    0.47E-03    0.72E-04    0.17E-06
   0      7    13.340    12.209    0.45E-03    0.63E-04    0.16E-06
   1      7    13.340     4.655    0.21E-03    0.61E-03    0.12E-06
 Optimization of the real space projectors (new method)

 maximal supplied QI-value         = 25.13
 optimisation between [QCUT,QGAM] = [ 13.32, 26.89] = [ 49.69,202.52] Ry 
 Optimized for a Real-space Cutoff    1.01 Angstroem

   l    n(q)    QCUT    max X(q) W(low)/X(q) W(high)/X(q)  e(spline) 
   0      8    13.321   115.676    0.29E-03    0.42E-03    0.11E-06
   0      8    13.321    87.132    0.29E-03    0.42E-03    0.11E-06
   1      8    13.321     4.429    0.39E-03    0.33E-03    0.98E-07
   1      8    13.321     2.733    0.30E-03    0.26E-03    0.97E-07
 Optimization of the real space projectors (new method)

 maximal supplied QI-value         = 25.13
 optimisation between [QCUT,QGAM] = [ 13.32, 26.89] = [ 49.69,202.52] Ry 
 Optimized for a Real-space Cutoff    1.01 Angstroem

   l    n(q)    QCUT    max X(q) W(low)/X(q) W(high)/X(q)  e(spline) 
   0      8    13.321    79.467    0.28E-03    0.38E-03    0.11E-06
   0      8    13.321    66.151    0.27E-03    0.38E-03    0.11E-06
   1      8    13.321    23.070    0.40E-03    0.78E-03    0.29E-06
   1      8    13.321    16.668    0.40E-03    0.79E-03    0.30E-06
  PAW_PBE C 08Apr2002                   :
 energy of atom  1       EATOM= -147.1560
 kinetic energy error for atom=    0.0032 (will be added to EATOM!!)
  PAW_PBE H 15Jun2001                   :
 energy of atom  2       EATOM=  -12.4884
 kinetic energy error for atom=    0.0002 (will be added to EATOM!!)
  PAW_PBE C 08Apr2002                   :
 energy of atom  3       EATOM= -147.1560
 kinetic energy error for atom=    0.0032 (will be added to EATOM!!)
  PAW_PBE N 08Apr2002                   :
 energy of atom  4       EATOM= -264.5486
 kinetic energy error for atom=    0.0061 (will be added to EATOM!!)
 
 
 POSCAR: Autosave
  positions in direct lattice
  velocities in cartesian coordinates
 exchange correlation table for  LEXCH =        8
   RHO(1)=    0.500       N(1)  =     2000
   RHO(2)=  100.500       N(2)  =     4000
 


--------------------------------------------------------------------------------------------------------


 ion  position               nearest neighbor table
   1  1.000  1.000  0.000- 288 1.55 437 1.55 476 1.55 384 1.55
   2  1.000  1.000  0.500- 383 1.55 436 1.55 289 1.55 475 1.55
   3  1.000  0.250  1.000- 290 1.55 431 1.55 470 1.55 386 1.55
   4  0.000  0.250  0.500- 430 1.55 469 1.55 291 1.55 385 1.55
   5  1.000  0.500  1.000- 292 1.55 388 1.55 433 1.55 472 1.55
   6  1.000  0.500  0.500- 432 1.54 471 1.54 293 1.55 387 1.55
   7  1.000  0.750  0.000- 294 1.55 435 1.55 390 1.55 474 1.55
   8  1.000  0.750  0.500- 295 1.55 434 1.55 389 1.55 473 1.55
   9  0.167  1.000  0.000- 296 1.55 445 1.55 437 1.55 392 1.55
  10  0.167  0.000  0.500- 391 1.54 444 1.55 436 1.55 297 1.55
  11  0.167  0.250  1.000- 298 1.55 431 1.55 439 1.55 394 1.55
  12  0.167  0.250  0.500- 430 1.55 299 1.55 393 1.55 438 1.55
  13  0.167  0.500  0.000- 300 1.55 433 1.55 396 1.55 441 1.55
  14  0.166  0.500  0.500- 440 1.54 432 1.54 301 1.55 395 1.55
  15  0.167  0.750  0.000- 443 1.55 302 1.55 435 1.55 398 1.55
  16  0.167  0.750  0.500- 442 1.55 303 1.55 434 1.55 397 1.55
  17  0.333  0.000  1.000- 304 1.55 453 1.55 445 1.55 400 1.55
  18  0.333  0.000  0.500- 399 1.55 452 1.55 305 1.55 444 1.55
  19  0.333  0.250  1.000- 306 1.55 447 1.55 402 1.55 439 1.55
  20  0.333  0.250  0.500- 401 1.54 438 1.54 307 1.55 446 1.55
  21  0.333  0.500  0.000- 308 1.55 404 1.55 449 1.55 441 1.55
  22  0.332  0.499  0.499- 448 1.52 440 1.54 309 1.55 403 1.55
  23  0.333  0.750  0.000- 310 1.55 451 1.55 443 1.55 406 1.55
  24  0.333  0.751  0.500- 450 1.54 405 1.54 311 1.55 442 1.55
  25  0.500  0.000  1.000- 312 1.55 460 1.55 453 1.55 408 1.55
  26  0.500  0.000  0.500- 407 1.55 313 1.55 452 1.55 459 1.55
  27  0.500  0.250  1.000- 410 1.55 314 1.55 455 1.55 447 1.55
  28  0.500  0.251  0.500- 315 1.54 454 1.55 446 1.55 409 1.55
  29  0.500  0.500  0.000- 411 1.55 456 1.55 449 1.55 316 1.55
  30  0.500  0.750  0.000- 317 1.54 458 1.55 451 1.55 413 1.55
  31  0.500  0.750  0.500- 412 1.55 318 1.55 450 1.55 457 1.55
  32  0.667  0.000  1.000- 319 1.55 460 1.55 468 1.55 415 1.55
  33  0.667  0.000  0.500- 414 1.55 459 1.55 320 1.55 467 1.55
  34  0.667  0.250  1.000- 321 1.55 455 1.55 462 1.55 417 1.55
  35  0.667  0.250  0.500- 416 1.54 461 1.54 322 1.55 454 1.55
  36  0.667  0.500  0.000- 323 1.55 419 1.55 456 1.55 464 1.55
  37  0.666  0.498  0.498- 576 1.48 463 1.54 418 1.56 324 1.56
  38  0.667  0.750  0.000- 325 1.55 458 1.55 466 1.55 421 1.55
  39  0.667  0.750  0.500- 457 1.54 420 1.54 326 1.55 465 1.55
  40  0.833  1.000  0.000- 327 1.55 468 1.55 476 1.55 423 1.55
  41  0.833  1.000  0.500- 422 1.54 467 1.55 475 1.55 328 1.55
  42  0.833  0.250  1.000- 329 1.55 470 1.55 462 1.55 425 1.55
  43  0.833  0.250  0.500- 469 1.54 424 1.55 330 1.55 461 1.55
  44  0.833  0.500  1.000- 331 1.55 427 1.55 472 1.55 464 1.55
  45  0.834  0.500  0.500- 463 1.54 471 1.54 332 1.55 426 1.55
  46  0.833  0.750  0.000- 466 1.55 333 1.55 474 1.55 429 1.55
  47  0.833  0.750  0.500- 334 1.55 473 1.55 465 1.55 428 1.55
  48  0.083  0.125  1.000- 335 1.55 384 1.55 392 1.55 431 1.55
  49  0.083  0.125  0.500- 383 1.55 430 1.55 391 1.55 336 1.55
  50  0.083  0.375  1.000- 337 1.55 386 1.55 394 1.55 433 1.55
  51  0.083  0.375  0.500- 385 1.54 393 1.55 338 1.55 432 1.55
  52  0.083  0.625  0.000- 396 1.55 339 1.55 435 1.55 388 1.55
  53  0.083  0.625  0.500- 395 1.55 340 1.55 434 1.55 387 1.55
  54  0.083  0.875  0.000- 341 1.55 398 1.55 437 1.55 390 1.55
  55  0.083  0.875  0.500- 397 1.55 436 1.55 342 1.55 389 1.55
  56  0.250  0.125  1.000- 343 1.55 400 1.55 392 1.55 439 1.55
  57  0.250  0.125  0.500- 438 1.54 391 1.55 344 1.55 399 1.55
  58  0.250  0.375  1.000- 345 1.54 394 1.55 441 1.55 402 1.55
  59  0.250  0.375  0.500- 393 1.54 346 1.55 440 1.55 401 1.55
  60  0.250  0.625  0.000- 404 1.54 347 1.54 443 1.55 396 1.55
  61  0.250  0.625  0.500- 348 1.55 442 1.55 403 1.55 395 1.55
  62  0.250  0.875  0.000- 349 1.55 406 1.55 445 1.55 398 1.55
  63  0.250  0.875  0.500- 405 1.54 444 1.54 350 1.55 397 1.55
  64  0.417  0.125  1.000- 351 1.55 408 1.55 400 1.55 447 1.55
  65  0.417  0.125  0.500- 352 1.55 407 1.55 446 1.55 399 1.55
  66  0.417  0.375  0.000- 449 1.55 410 1.55 353 1.55 402 1.55
  67  0.415  0.374  0.499- 448 1.52 401 1.54 354 1.55 409 1.55
  68  0.417  0.625  0.001- 355 1.55 411 1.55 451 1.55 404 1.55
  69  0.417  0.625  0.500- 575 1.49 356 1.55 450 1.55 403 1.56
  70  0.417  0.875  0.000- 357 1.55 413 1.55 453 1.55 406 1.55
  71  0.417  0.875  0.500- 452 1.55 358 1.55 412 1.55 405 1.55
  72  0.583  0.125  1.000- 408 1.55 415 1.55 359 1.55 455 1.55
  73  0.583  0.125  0.500- 454 1.55 360 1.55 407 1.55 414 1.55
  74  0.583  0.375  0.000- 361 1.55 410 1.55 456 1.55 417 1.55
  75  0.585  0.376  0.498- 576 1.48 416 1.54 362 1.56 409 1.56
  76  0.583  0.625  0.001- 411 1.55 419 1.55 363 1.55 458 1.55
  77  0.582  0.625  0.500- 575 1.49 364 1.55 418 1.55 457 1.55
  78  0.583  0.875  0.000- 365 1.55 413 1.55 421 1.55 460 1.55
  79  0.583  0.875  0.500- 459 1.55 366 1.55 412 1.55 420 1.55
  80  0.750  0.125  1.000- 367 1.55 415 1.55 423 1.55 462 1.55
  81  0.750  0.125  0.500- 461 1.54 422 1.55 368 1.55 414 1.55
  82  0.750  0.375  1.000- 369 1.54 425 1.55 464 1.55 417 1.55
  83  0.750  0.375  0.500- 424 1.54 370 1.55 463 1.55 416 1.55
  84  0.750  0.625  0.000- 419 1.54 371 1.54 427 1.55 466 1.55
  85  0.749  0.624  0.500- 372 1.54 426 1.55 465 1.55 418 1.56
  86  0.750  0.875  0.000- 373 1.55 421 1.55 429 1.55 468 1.55
  87  0.750  0.875  0.500- 420 1.54 467 1.54 374 1.55 428 1.55
  88  0.917  0.125  1.000- 375 1.55 384 1.55 423 1.55 470 1.55
  89  0.917  0.125  0.500- 383 1.55 469 1.55 422 1.55 376 1.55
  90  0.917  0.375  1.000- 377 1.55 386 1.55 425 1.55 472 1.55
  91  0.917  0.375  0.500- 385 1.54 424 1.55 378 1.55 471 1.55
  92  0.917  0.625  1.000- 388 1.55 474 1.55 379 1.55 427 1.55
  93  0.917  0.625  0.500- 380 1.55 473 1.55 387 1.55 426 1.55
  94  0.917  0.875  0.000- 381 1.55 429 1.55 390 1.55 476 1.55
  95  0.917  0.875  0.500- 389 1.55 382 1.55 475 1.55 428 1.55
  96  0.000  0.083  0.333- 525 1.55 477 1.55 383 1.55 565 1.55
  97  1.000  0.083  0.833- 384 1.55 478 1.55 526 1.55 566 1.55
  98  0.000  0.333  0.333- 527 1.55 567 1.55 385 1.55 479 1.55
  99  1.000  0.333  0.833- 386 1.55 568 1.55 480 1.55 528 1.55
 100  1.000  0.583  0.333- 569 1.55 387 1.55 529 1.55 481 1.55
 101  1.000  0.583  0.833- 388 1.55 482 1.55 530 1.55 570 1.55
 102  1.000  0.833  0.333- 389 1.55 483 1.55 531 1.55 571 1.55
 103  1.000  0.833  0.833- 390 1.55 532 1.55 484 1.55 572 1.55
 104  0.167  0.083  0.333- 525 1.55 485 1.55 533 1.55 391 1.55
 105  0.167  0.083  0.833- 392 1.55 534 1.55 486 1.55 526 1.55
 106  0.167  0.333  0.333- 527 1.55 535 1.55 393 1.55 487 1.55
 107  0.167  0.333  0.833- 394 1.55 528 1.55 536 1.55 488 1.55
 108  0.167  0.583  0.333- 395 1.55 537 1.55 489 1.55 529 1.55
 109  0.167  0.583  0.833- 538 1.55 490 1.55 530 1.55 396 1.55
 110  0.167  0.833  0.333- 397 1.55 491 1.55 539 1.55 531 1.55
 111  0.167  0.833  0.833- 540 1.55 398 1.55 492 1.55 532 1.55
 112  0.333  0.083  0.333- 493 1.55 399 1.55 541 1.55 533 1.55
 113  0.333  0.083  0.833- 400 1.55 542 1.55 494 1.55 534 1.55
 114  0.333  0.333  0.333- 535 1.54 543 1.55 401 1.55 495 1.55
 115  0.333  0.333  0.833- 496 1.55 544 1.55 402 1.55 536 1.55
 116  0.333  0.583  0.334- 403 1.54 545 1.54 497 1.55 537 1.55
 117  0.333  0.584  0.834- 546 1.54 404 1.54 498 1.55 538 1.55
 118  0.333  0.833  0.333- 499 1.55 405 1.55 539 1.55 547 1.55
 119  0.333  0.833  0.833- 548 1.55 406 1.55 500 1.55 540 1.55
 120  0.500  0.083  0.333- 501 1.55 407 1.55 541 1.55 549 1.55
 121  0.500  0.083  0.833- 408 1.55 542 1.55 550 1.55 502 1.55
 122  0.500  0.333  0.333- 409 1.54 503 1.54 543 1.55 551 1.55
 123  0.500  0.334  0.833- 504 1.54 410 1.55 544 1.55 552 1.55
 124  0.500  0.583  0.336- 575 1.51 553 1.55 545 1.55 505 1.57
 125  0.500  0.584  0.834- 506 1.55 411 1.55 546 1.55 554 1.55
 126  0.500  0.833  0.333- 412 1.55 507 1.55 547 1.55 555 1.55
 127  0.500  0.833  0.833- 413 1.55 508 1.55 556 1.55 548 1.55
 128  0.667  0.083  0.333- 509 1.55 557 1.55 549 1.55 414 1.55
 129  0.667  0.083  0.833- 415 1.55 550 1.55 558 1.55 510 1.55
 130  0.667  0.333  0.333- 559 1.54 551 1.55 416 1.55 511 1.55
 131  0.667  0.334  0.833- 552 1.55 512 1.55 560 1.55 417 1.55
 132  0.666  0.583  0.334- 418 1.54 553 1.54 513 1.55 561 1.55
 133  0.667  0.584  0.834- 554 1.54 419 1.54 514 1.55 562 1.55
 134  0.667  0.833  0.333- 515 1.55 563 1.55 420 1.55 555 1.55
 135  0.667  0.833  0.833- 556 1.55 421 1.55 564 1.55 516 1.55
 136  0.833  0.083  0.333- 565 1.55 517 1.55 557 1.55 422 1.55
 137  0.833  0.083  0.833- 423 1.55 558 1.55 566 1.55 518 1.55
 138  0.834  0.333  0.333- 567 1.54 424 1.55 559 1.55 519 1.55
 139  0.833  0.333  0.833- 425 1.55 568 1.55 560 1.55 520 1.55
 140  0.833  0.583  0.333- 561 1.55 426 1.55 521 1.55 569 1.55
 141  0.833  0.583  0.833- 570 1.55 522 1.55 562 1.55 427 1.55
 142  0.833  0.833  0.333- 428 1.55 563 1.55 571 1.55 523 1.55
 143  0.833  0.833  0.833- 564 1.55 429 1.55 572 1.55 524 1.55
 144  0.083  0.208  0.333- 485 1.55 477 1.55 430 1.55 527 1.55
 145  0.083  0.208  0.833- 431 1.55 486 1.55 478 1.55 528 1.55
 146  0.083  0.458  0.333- 479 1.55 487 1.55 529 1.55 432 1.55
 147  0.083  0.458  0.833- 433 1.55 488 1.55 530 1.55 480 1.55
 148  0.083  0.708  0.333- 489 1.55 434 1.55 531 1.55 481 1.55
 149  0.083  0.708  0.833- 490 1.55 435 1.55 532 1.55 482 1.55
 150  0.083  0.958  0.333- 491 1.55 525 1.55 436 1.55 483 1.55
 151  0.083  0.958  0.833- 492 1.55 437 1.55 526 1.55 484 1.55
 152  0.250  0.208  0.333- 485 1.55 535 1.55 493 1.55 438 1.55
 153  0.250  0.208  0.833- 439 1.55 494 1.55 536 1.55 486 1.55
 154  0.250  0.458  0.333- 487 1.54 537 1.55 440 1.55 495 1.55
 155  0.250  0.458  0.833- 538 1.55 441 1.55 496 1.55 488 1.55
 156  0.250  0.708  0.334- 442 1.55 497 1.55 489 1.55 539 1.55
 157  0.250  0.708  0.834- 498 1.54 443 1.55 540 1.55 490 1.55
 158  0.250  0.958  0.333- 533 1.55 444 1.55 499 1.55 491 1.55
 159  0.250  0.958  0.833- 445 1.55 500 1.55 534 1.55 492 1.55
 160  0.417  0.208  0.333- 543 1.54 446 1.55 501 1.55 493 1.55
 161  0.417  0.209  0.833- 502 1.55 494 1.55 447 1.55 544 1.55
 162  0.415  0.457  0.333- 448 1.52 495 1.54 545 1.55 503 1.55
 163  0.417  0.459  0.833- 496 1.55 449 1.55 546 1.55 504 1.55
 164  0.417  0.708  0.334- 497 1.55 547 1.55 450 1.55 505 1.55
 165  0.417  0.708  0.834- 506 1.55 451 1.55 498 1.55 548 1.55
 166  0.417  0.958  0.333- 541 1.55 452 1.55 499 1.55 507 1.55
 167  0.417  0.958  0.833- 453 1.55 500 1.55 508 1.55 542 1.55
 168  0.583  0.208  0.333- 551 1.55 454 1.55 509 1.55 501 1.55
 169  0.583  0.209  0.833- 502 1.55 510 1.55 455 1.55 552 1.55
 170  0.585  0.457  0.335- 576 1.48 511 1.54 553 1.56 503 1.56
 171  0.583  0.459  0.833- 512 1.55 456 1.55 554 1.55 504 1.55
 172  0.583  0.708  0.334- 513 1.55 555 1.55 457 1.55 505 1.55
 173  0.583  0.708  0.834- 506 1.55 514 1.55 458 1.55 556 1.55
 174  0.583  0.958  0.333- 549 1.55 515 1.55 459 1.55 507 1.55
 175  0.583  0.958  0.833- 460 1.55 516 1.55 508 1.55 550 1.55
 176  0.750  0.208  0.333- 517 1.54 559 1.55 509 1.55 461 1.55
 177  0.750  0.208  0.833- 462 1.55 510 1.55 560 1.55 518 1.55
 178  0.750  0.458  0.333- 519 1.54 561 1.55 463 1.55 511 1.55
 179  0.750  0.458  0.833- 562 1.55 512 1.55 520 1.55 464 1.55
 180  0.750  0.708  0.334- 465 1.55 513 1.55 521 1.55 563 1.55
 181  0.750  0.708  0.833- 514 1.54 466 1.55 522 1.55 564 1.55
 182  0.750  0.958  0.333- 557 1.55 515 1.55 523 1.55 467 1.55
 183  0.750  0.958  0.833- 468 1.55 516 1.55 524 1.55 558 1.55
 184  0.917  0.208  0.333- 477 1.55 517 1.55 567 1.55 469 1.55
 185  0.917  0.208  0.833- 470 1.55 518 1.55 478 1.55 568 1.55
 186  0.917  0.458  0.333- 479 1.54 519 1.55 569 1.55 471 1.55
 187  0.917  0.458  0.833- 472 1.55 570 1.55 520 1.55 480 1.55
 188  0.917  0.708  0.333- 473 1.55 521 1.55 481 1.55 571 1.55
 189  0.917  0.708  0.833- 482 1.55 474 1.55 572 1.55 522 1.55
 190  0.917  0.958  0.333- 565 1.55 523 1.55 483 1.55 475 1.55
 191  0.917  0.958  0.833- 476 1.55 524 1.55 566 1.55 484 1.55
 192  0.000  0.167  0.167- 335 1.55 375 1.55 477 1.55 290 1.55
 193  1.000  0.167  0.667- 478 1.55 336 1.55 376 1.55 291 1.55
 194  1.000  0.417  0.167- 337 1.55 377 1.55 479 1.55 292 1.55
 195  1.000  0.417  0.667- 480 1.55 338 1.55 378 1.55 293 1.55
 196  1.000  0.667  0.167- 339 1.55 481 1.55 379 1.55 294 1.55
 197  1.000  0.667  0.667- 482 1.55 295 1.55 340 1.55 380 1.55
 198  1.000  0.917  0.167- 341 1.55 483 1.55 381 1.55 288 1.55
 199  1.000  0.917  0.667- 342 1.55 484 1.55 289 1.55 382 1.55
 200  0.167  0.167  0.167- 335 1.55 485 1.55 298 1.55 343 1.55
 201  0.167  0.167  0.667- 486 1.55 299 1.55 344 1.55 336 1.55
 202  0.167  0.417  0.166- 337 1.55 487 1.55 300 1.55 345 1.55
 203  0.167  0.417  0.667- 488 1.55 301 1.55 346 1.55 338 1.55
 204  0.167  0.667  0.167- 347 1.55 489 1.55 302 1.55 339 1.55
 205  0.167  0.667  0.667- 490 1.55 303 1.55 348 1.55 340 1.55
 206  0.167  0.917  0.167- 491 1.55 296 1.55 349 1.55 341 1.55
 207  0.167  0.917  0.667- 350 1.55 297 1.55 492 1.55 342 1.55
 208  0.333  0.167  0.167- 493 1.55 306 1.55 343 1.55 351 1.55
 209  0.333  0.167  0.667- 494 1.55 307 1.55 352 1.55 344 1.55
 210  0.333  0.416  0.166- 495 1.54 345 1.54 308 1.55 353 1.55
 211  0.333  0.417  0.666- 309 1.54 354 1.54 496 1.55 346 1.55
 212  0.333  0.667  0.167- 497 1.55 355 1.55 347 1.55 310 1.55
 213  0.333  0.667  0.667- 356 1.54 498 1.55 348 1.55 311 1.55
 214  0.333  0.917  0.167- 499 1.55 304 1.55 357 1.55 349 1.55
 215  0.333  0.917  0.667- 500 1.55 358 1.55 305 1.55 350 1.55
 216  0.500  0.167  0.167- 314 1.55 501 1.55 359 1.55 351 1.55
 217  0.500  0.167  0.666- 502 1.55 360 1.55 352 1.55 315 1.55
 218  0.500  0.417  0.167- 316 1.55 361 1.55 353 1.55 503 1.55
 219  0.500  0.419  0.665- 574 1.51 362 1.55 354 1.55 504 1.57
 220  0.500  0.667  0.167- 505 1.54 363 1.55 355 1.55 317 1.55
 221  0.500  0.667  0.667- 356 1.54 364 1.54 318 1.55 506 1.55
 222  0.500  0.917  0.167- 507 1.55 357 1.55 365 1.55 312 1.55
 223  0.500  0.917  0.667- 508 1.55 313 1.55 366 1.55 358 1.55
 224  0.667  0.167  0.167- 509 1.55 367 1.55 321 1.55 359 1.55
 225  0.667  0.167  0.667- 510 1.55 360 1.55 322 1.55 368 1.55
 226  0.667  0.416  0.166- 511 1.54 369 1.54 323 1.55 361 1.55
 227  0.666  0.417  0.666- 324 1.54 362 1.54 512 1.55 370 1.55
 228  0.667  0.667  0.167- 513 1.54 363 1.55 371 1.55 325 1.55
 229  0.666  0.667  0.667- 364 1.54 372 1.55 514 1.55 326 1.55
 230  0.667  0.917  0.167- 515 1.55 365 1.55 319 1.55 373 1.55
 231  0.667  0.917  0.667- 516 1.55 366 1.55 320 1.55 374 1.55
 232  0.833  0.167  0.167- 375 1.55 517 1.55 367 1.55 329 1.55
 233  0.833  0.167  0.667- 518 1.55 368 1.55 330 1.55 376 1.55
 234  0.833  0.417  0.166- 377 1.54 519 1.55 331 1.55 369 1.55
 235  0.833  0.417  0.667- 370 1.55 332 1.55 520 1.55 378 1.55
 236  0.833  0.667  0.167- 371 1.55 521 1.55 379 1.55 333 1.55
 237  0.833  0.667  0.667- 522 1.55 380 1.55 334 1.55 372 1.55
 238  0.833  0.917  0.167- 373 1.55 523 1.55 327 1.55 381 1.55
 239  0.833  0.917  0.667- 374 1.55 524 1.55 328 1.55 382 1.55
 240  0.083  0.042  0.167- 296 1.55 525 1.55 335 1.55 288 1.55
 241  0.083  0.042  0.667- 297 1.55 526 1.55 336 1.55 289 1.55
 242  0.083  0.292  0.167- 290 1.55 298 1.55 527 1.55 337 1.55
 243  0.083  0.292  0.667- 528 1.55 299 1.55 338 1.55 291 1.55
 244  0.083  0.542  0.167- 529 1.55 300 1.55 292 1.55 339 1.55
 245  0.083  0.542  0.667- 301 1.55 530 1.55 340 1.55 293 1.55
 246  0.083  0.792  0.167- 302 1.55 531 1.55 341 1.55 294 1.55
 247  0.083  0.792  0.667- 303 1.55 532 1.55 342 1.55 295 1.55
 248  0.250  0.042  0.167- 533 1.55 343 1.55 296 1.55 304 1.55
 249  0.250  0.042  0.667- 344 1.55 534 1.55 305 1.55 297 1.55
 250  0.250  0.292  0.166- 298 1.55 535 1.55 306 1.55 345 1.55
 251  0.250  0.292  0.667- 536 1.55 346 1.55 307 1.55 299 1.55
 252  0.250  0.542  0.167- 537 1.55 347 1.55 308 1.55 300 1.55
 253  0.250  0.542  0.667- 348 1.55 538 1.55 309 1.55 301 1.55
 254  0.250  0.792  0.167- 539 1.55 310 1.55 349 1.55 302 1.55
 255  0.250  0.792  0.667- 311 1.54 540 1.55 350 1.55 303 1.55
 256  0.417  0.042  0.167- 304 1.55 351 1.55 541 1.55 312 1.55
 257  0.417  0.042  0.667- 542 1.55 305 1.55 313 1.55 352 1.55
 258  0.417  0.292  0.167- 543 1.54 353 1.55 314 1.55 306 1.55
 259  0.417  0.292  0.666- 315 1.55 544 1.55 307 1.55 354 1.55
 260  0.417  0.542  0.168- 316 1.55 355 1.55 545 1.55 308 1.55
 261  0.417  0.542  0.667- 574 1.49 356 1.55 546 1.55 309 1.56
 262  0.417  0.792  0.167- 547 1.55 357 1.55 310 1.55 317 1.55
 263  0.417  0.792  0.667- 548 1.55 318 1.55 358 1.55 311 1.55
 264  0.583  0.042  0.167- 319 1.55 359 1.55 312 1.55 549 1.55
 265  0.583  0.042  0.667- 550 1.55 320 1.55 313 1.55 360 1.55
 266  0.583  0.292  0.167- 551 1.54 361 1.55 321 1.55 314 1.55
 267  0.583  0.292  0.666- 315 1.54 322 1.55 552 1.55 362 1.56
 268  0.583  0.541  0.168- 316 1.55 323 1.55 363 1.55 553 1.56
 269  0.582  0.542  0.667- 574 1.49 364 1.55 324 1.55 554 1.55
 270  0.583  0.792  0.167- 555 1.55 325 1.55 365 1.55 317 1.55
 271  0.583  0.792  0.667- 318 1.55 556 1.55 326 1.55 366 1.55
 272  0.750  0.042  0.167- 557 1.55 327 1.55 319 1.55 367 1.55
 273  0.750  0.042  0.667- 558 1.55 320 1.55 368 1.55 328 1.55
 274  0.750  0.291  0.166- 329 1.54 559 1.55 321 1.55 369 1.55
 275  0.750  0.292  0.666- 370 1.55 560 1.55 322 1.55 330 1.55
 276  0.750  0.542  0.167- 561 1.55 323 1.55 371 1.55 331 1.55
 277  0.749  0.541  0.666- 372 1.54 332 1.55 562 1.55 324 1.56
 278  0.750  0.792  0.167- 563 1.55 325 1.55 333 1.55 373 1.55
 279  0.750  0.792  0.667- 326 1.54 564 1.55 374 1.55 334 1.55
 280  0.917  0.042  0.167- 327 1.55 288 1.55 565 1.55 375 1.55
 281  0.917  0.042  0.667- 328 1.55 566 1.55 376 1.55 289 1.55
 282  0.917  0.292  0.166- 290 1.55 567 1.55 329 1.55 377 1.55
 283  0.917  0.292  0.667- 568 1.55 330 1.55 378 1.55 291 1.55
 284  0.917  0.542  0.167- 331 1.55 569 1.55 379 1.55 292 1.55
 285  0.917  0.542  0.667- 570 1.55 380 1.55 332 1.55 293 1.55
 286  0.917  0.792  0.167- 333 1.55 571 1.55 381 1.55 294 1.55
 287  0.917  0.792  0.667- 572 1.55 295 1.55 382 1.55 334 1.55
 288  1.000  1.000  0.125-   1 1.55 280 1.55 198 1.55 240 1.55
 289  1.000  1.000  0.625- 199 1.55   2 1.55 281 1.55 241 1.55
 290  0.000  0.250  0.125- 282 1.55 242 1.55   3 1.55 192 1.55
 291  1.000  0.250  0.625-   4 1.55 193 1.55 283 1.55 243 1.55
 292  1.000  0.500  0.125-   5 1.55 284 1.55 244 1.55 194 1.55
 293  1.000  0.500  0.625- 195 1.55   6 1.55 285 1.55 245 1.55
 294  1.000  0.750  0.125-   7 1.55 286 1.55 246 1.55 196 1.55
 295  1.000  0.750  0.625-   8 1.55 287 1.55 197 1.55 247 1.55
 296  0.167  1.000  0.125-   9 1.55 240 1.55 206 1.55 248 1.55
 297  0.167  0.000  0.625- 241 1.55 207 1.55  10 1.55 249 1.55
 298  0.167  0.250  0.125- 250 1.55  11 1.55 242 1.55 200 1.55
 299  0.167  0.250  0.625-  12 1.55 201 1.55 243 1.55 251 1.55
 300  0.167  0.500  0.125-  13 1.55 244 1.55 202 1.55 252 1.55
 301  0.167  0.500  0.625- 245 1.55 203 1.55  14 1.55 253 1.55
 302  0.167  0.750  0.125- 246 1.55  15 1.55 254 1.55 204 1.55
 303  0.167  0.750  0.625-  16 1.55 247 1.55 205 1.55 255 1.55
 304  0.333  1.000  0.125-  17 1.55 256 1.55 214 1.55 248 1.55
 305  0.333  0.000  0.625-  18 1.55 249 1.55 215 1.55 257 1.55
 306  0.333  0.250  0.125-  19 1.55 208 1.55 250 1.55 258 1.55
 307  0.333  0.250  0.625- 209 1.55 251 1.55  20 1.55 259 1.55
 308  0.333  0.500  0.125-  21 1.55 252 1.55 210 1.55 260 1.55
 309  0.334  0.500  0.625- 211 1.54 253 1.55  22 1.55 261 1.56
 310  0.333  0.750  0.125-  23 1.55 254 1.55 262 1.55 212 1.55
 311  0.333  0.750  0.625- 255 1.54  24 1.55 263 1.55 213 1.55
 312  0.500  0.000  0.125-  25 1.55 264 1.55 222 1.55 256 1.55
 313  0.500  0.000  0.625-  26 1.55 223 1.55 265 1.55 257 1.55
 314  0.500  0.250  0.125-  27 1.55 216 1.55 266 1.55 258 1.55
 315  0.500  0.250  0.625-  28 1.54 267 1.54 259 1.55 217 1.55
 316  0.500  0.500  0.126- 218 1.55 268 1.55 260 1.55  29 1.55
 317  0.500  0.750  0.125-  30 1.54 220 1.55 270 1.55 262 1.55
 318  0.500  0.750  0.625-  31 1.55 271 1.55 263 1.55 221 1.55
 319  0.667  1.000  0.125-  32 1.55 264 1.55 272 1.55 230 1.55
 320  0.667  0.000  0.625- 273 1.55  33 1.55 231 1.55 265 1.55
 321  0.667  0.250  0.125-  34 1.55 266 1.55 224 1.55 274 1.55
 322  0.667  0.250  0.625-  35 1.55 275 1.55 225 1.55 267 1.55
 323  0.667  0.500  0.125- 276 1.55 226 1.55  36 1.55 268 1.55
 324  0.665  0.500  0.624- 227 1.54 269 1.55 277 1.56  37 1.56
 325  0.667  0.750  0.125-  38 1.55 278 1.55 270 1.55 228 1.55
 326  0.667  0.750  0.625- 279 1.54  39 1.55 271 1.55 229 1.55
 327  0.833  1.000  0.125-  40 1.55 280 1.55 272 1.55 238 1.55
 328  0.833  0.000  0.625- 281 1.55  41 1.55 239 1.55 273 1.55
 329  0.833  0.250  0.125- 274 1.54  42 1.55 282 1.55 232 1.55
 330  0.833  0.250  0.625- 283 1.55 233 1.55  43 1.55 275 1.55
 331  0.833  0.500  0.125-  44 1.55 284 1.55 234 1.55 276 1.55
 332  0.833  0.500  0.625-  45 1.55 235 1.55 285 1.55 277 1.55
 333  0.833  0.750  0.125- 286 1.55  46 1.55 278 1.55 236 1.55
 334  0.833  0.750  0.625-  47 1.55 237 1.55 287 1.55 279 1.55
 335  0.083  0.125  0.125- 200 1.55  48 1.55 192 1.55 240 1.55
 336  0.083  0.125  0.625- 193 1.55 241 1.55  49 1.55 201 1.55
 337  0.083  0.375  0.125- 202 1.55  50 1.55 194 1.55 242 1.55
 338  0.083  0.375  0.625- 195 1.55  51 1.55 243 1.55 203 1.55
 339  0.083  0.625  0.125- 196 1.55  52 1.55 244 1.55 204 1.55
 340  0.083  0.625  0.625-  53 1.55 197 1.55 245 1.55 205 1.55
 341  0.083  0.875  0.125-  54 1.55 198 1.55 246 1.55 206 1.55
 342  0.083  0.875  0.625- 199 1.55  55 1.55 247 1.55 207 1.55
 343  0.250  0.125  0.125-  56 1.55 248 1.55 200 1.55 208 1.55
 344  0.250  0.125  0.625- 249 1.55 201 1.55  57 1.55 209 1.55
 345  0.250  0.375  0.125- 210 1.54  58 1.54 250 1.55 202 1.55
 346  0.250  0.375  0.625-  59 1.55 251 1.55 203 1.55 211 1.55
 347  0.250  0.625  0.125-  60 1.54 204 1.55 252 1.55 212 1.55
 348  0.250  0.625  0.625-  61 1.55 253 1.55 205 1.55 213 1.55
 349  0.250  0.875  0.125-  62 1.55 206 1.55 214 1.55 254 1.55
 350  0.250  0.875  0.625- 207 1.55  63 1.55 255 1.55 215 1.55
 351  0.417  0.125  0.125-  64 1.55 256 1.55 216 1.55 208 1.55
 352  0.417  0.125  0.625-  65 1.55 209 1.55 217 1.55 257 1.55
 353  0.417  0.375  0.125- 258 1.55  66 1.55 210 1.55 218 1.55
 354  0.417  0.376  0.624- 211 1.54  67 1.55 259 1.55 219 1.55
 355  0.417  0.625  0.125-  68 1.55 220 1.55 212 1.55 260 1.55
 356  0.417  0.625  0.625- 213 1.54 221 1.54  69 1.55 261 1.55
 357  0.417  0.875  0.125-  70 1.55 222 1.55 262 1.55 214 1.55
 358  0.417  0.875  0.625- 215 1.55 263 1.55 223 1.55  71 1.55
 359  0.583  0.125  0.125- 264 1.55 216 1.55 224 1.55  72 1.55
 360  0.583  0.125  0.625-  73 1.55 225 1.55 217 1.55 265 1.55
 361  0.583  0.375  0.125-  74 1.55 266 1.55 226 1.55 218 1.55
 362  0.583  0.376  0.624- 227 1.54 219 1.55  75 1.56 267 1.56
 363  0.583  0.625  0.126- 228 1.55 220 1.55  76 1.55 268 1.55
 364  0.583  0.625  0.625- 229 1.54 221 1.54 269 1.55  77 1.55
 365  0.583  0.875  0.125-  78 1.55 230 1.55 222 1.55 270 1.55
 366  0.583  0.875  0.625- 231 1.55 223 1.55  79 1.55 271 1.55
 367  0.750  0.125  0.125-  80 1.55 224 1.55 232 1.55 272 1.55
 368  0.750  0.125  0.625- 233 1.55 273 1.55  81 1.55 225 1.55
 369  0.750  0.375  0.124- 226 1.54  82 1.54 234 1.55 274 1.55
 370  0.750  0.375  0.625- 235 1.55 275 1.55  83 1.55 227 1.55
 371  0.750  0.625  0.125-  84 1.54 236 1.55 276 1.55 228 1.55
 372  0.750  0.625  0.625-  85 1.54 277 1.54 229 1.55 237 1.55
 373  0.750  0.875  0.125-  86 1.55 238 1.55 230 1.55 278 1.55
 374  0.750  0.875  0.625- 239 1.55  87 1.55 279 1.55 231 1.55
 375  0.917  0.125  0.125- 232 1.55  88 1.55 192 1.55 280 1.55
 376  0.917  0.125  0.625- 193 1.55 281 1.55  89 1.55 233 1.55
 377  0.917  0.375  0.125- 234 1.54  90 1.55 194 1.55 282 1.55
 378  0.917  0.375  0.625- 195 1.55 283 1.55  91 1.55 235 1.55
 379  0.917  0.625  0.125- 284 1.55 196 1.55  92 1.55 236 1.55
 380  0.917  0.625  0.625-  93 1.55 285 1.55 237 1.55 197 1.55
 381  0.917  0.875  0.125-  94 1.55 198 1.55 286 1.55 238 1.55
 382  0.917  0.875  0.625-  95 1.55 199 1.55 287 1.55 239 1.55
 383  1.000  0.083  0.458-  89 1.55  49 1.55   2 1.55  96 1.55
 384  1.000  0.083  0.958-  97 1.55  88 1.55  48 1.55   1 1.55
 385  0.000  0.333  0.458-  91 1.54  51 1.54   4 1.55  98 1.55
 386  1.000  0.333  0.958-  90 1.55  50 1.55  99 1.55   3 1.55
 387  1.000  0.583  0.458- 100 1.55   6 1.55  93 1.55  53 1.55
 388  1.000  0.583  0.958-  92 1.55 101 1.55   5 1.55  52 1.55
 389  1.000  0.833  0.458-  95 1.55 102 1.55   8 1.55  55 1.55
 390  1.000  0.833  0.958- 103 1.55  94 1.55   7 1.55  54 1.55
 391  0.167  0.083  0.458-  10 1.54  57 1.55  49 1.55 104 1.55
 392  0.167  0.083  0.958- 105 1.55  48 1.55  56 1.55   9 1.55
 393  0.167  0.333  0.458-  59 1.54  12 1.55  51 1.55 106 1.55
 394  0.167  0.333  0.958- 107 1.55  58 1.55  50 1.55  11 1.55
 395  0.167  0.583  0.458- 108 1.55  53 1.55  14 1.55  61 1.55
 396  0.167  0.583  0.958-  52 1.55  13 1.55 109 1.55  60 1.55
 397  0.167  0.833  0.458-  55 1.55 110 1.55  16 1.55  63 1.55
 398  0.167  0.833  0.958- 111 1.55  54 1.55  15 1.55  62 1.55
 399  0.333  0.083  0.458-  18 1.55 112 1.55  57 1.55  65 1.55
 400  0.333  0.083  0.958- 113 1.55  56 1.55  64 1.55  17 1.55
 401  0.333  0.332  0.458-  20 1.54  67 1.54 114 1.55  59 1.55
 402  0.333  0.333  0.958-  19 1.55  58 1.55 115 1.55  66 1.55
 403  0.334  0.583  0.459- 116 1.54  61 1.55  22 1.55  69 1.56
 404  0.333  0.583  0.959- 117 1.54  60 1.54  21 1.55  68 1.55
 405  0.333  0.834  0.458-  24 1.54  63 1.54 118 1.55  71 1.55
 406  0.333  0.833  0.958- 119 1.55  62 1.55  70 1.55  23 1.55
 407  0.500  0.083  0.458-  26 1.55  73 1.55  65 1.55 120 1.55
 408  0.500  0.083  0.958-  72 1.55 121 1.55  64 1.55  25 1.55
 409  0.500  0.334  0.458- 122 1.54  67 1.55  28 1.55  75 1.56
 410  0.500  0.333  0.958-  27 1.55 123 1.55  74 1.55  66 1.55
 411  0.500  0.583  0.959- 125 1.55  76 1.55  68 1.55  29 1.55
 412  0.500  0.833  0.458-  31 1.55  71 1.55 126 1.55  79 1.55
 413  0.500  0.833  0.958- 127 1.55  78 1.55  70 1.55  30 1.55
 414  0.667  0.083  0.458-  33 1.55  81 1.55 128 1.55  73 1.55
 415  0.667  0.083  0.958- 129 1.55  80 1.55  72 1.55  32 1.55
 416  0.667  0.332  0.458-  35 1.54  75 1.54 130 1.55  83 1.55
 417  0.667  0.333  0.958-  82 1.55  34 1.55 131 1.55  74 1.55
 418  0.665  0.583  0.458- 132 1.54  77 1.55  85 1.56  37 1.56
 419  0.667  0.583  0.959- 133 1.54  84 1.54  36 1.55  76 1.55
 420  0.667  0.834  0.458-  39 1.54  87 1.54 134 1.55  79 1.55
 421  0.667  0.833  0.958- 135 1.55  86 1.55  78 1.55  38 1.55
 422  0.833  0.083  0.458-  41 1.54  81 1.55  89 1.55 136 1.55
 423  0.833  0.083  0.958- 137 1.55  80 1.55  88 1.55  40 1.55
 424  0.834  0.333  0.458-  83 1.54  91 1.55  43 1.55 138 1.55
 425  0.833  0.333  0.958- 139 1.55  82 1.55  90 1.55  42 1.55
 426  0.833  0.583  0.458- 140 1.55  45 1.55  93 1.55  85 1.55
 427  0.833  0.583  0.958-  44 1.55  84 1.55  92 1.55 141 1.55
 428  0.833  0.833  0.458- 142 1.55  95 1.55  87 1.55  47 1.55
 429  0.833  0.833  0.958- 143 1.55  94 1.55  86 1.55  46 1.55
 430  0.083  0.208  0.458-  12 1.55   4 1.55  49 1.55 144 1.55
 431  0.083  0.208  0.958-  11 1.55 145 1.55   3 1.55  48 1.55
 432  0.083  0.458  0.458-  14 1.54   6 1.54 146 1.55  51 1.55
 433  0.083  0.458  0.958- 147 1.55  13 1.55   5 1.55  50 1.55
 434  0.083  0.708  0.458-   8 1.55 148 1.55  53 1.55  16 1.55
 435  0.083  0.708  0.958- 149 1.55   7 1.55  52 1.55  15 1.55
 436  0.083  0.958  0.458-  55 1.55   2 1.55  10 1.55 150 1.55
 437  0.083  0.958  0.958- 151 1.55   1 1.55  54 1.55   9 1.55
 438  0.250  0.208  0.458-  20 1.54  57 1.54 152 1.55  12 1.55
 439  0.250  0.208  0.958- 153 1.55  11 1.55  56 1.55  19 1.55
 440  0.249  0.458  0.458-  22 1.54  14 1.54 154 1.55  59 1.55
 441  0.250  0.458  0.958- 155 1.55  13 1.55  58 1.55  21 1.55
 442  0.250  0.708  0.458-  16 1.55 156 1.55  24 1.55  61 1.55
 443  0.250  0.708  0.959-  15 1.55 157 1.55  23 1.55  60 1.55
 444  0.250  0.958  0.458-  63 1.54  10 1.55 158 1.55  18 1.55
 445  0.250  0.958  0.958- 159 1.55   9 1.55  62 1.55  17 1.55
 446  0.417  0.209  0.458- 160 1.55  65 1.55  20 1.55  28 1.55
 447  0.417  0.208  0.958-  19 1.55  27 1.55  64 1.55 161 1.55
 448  0.411  0.455  0.455- 573 1.09 162 1.52  67 1.52  22 1.52
 449  0.417  0.458  0.958-  66 1.55  21 1.55  29 1.55 163 1.55
 450  0.416  0.709  0.459-  24 1.54 164 1.55  31 1.55  69 1.55
 451  0.417  0.708  0.959-  23 1.55 165 1.55  30 1.55  68 1.55
 452  0.417  0.958  0.458-  71 1.55  18 1.55 166 1.55  26 1.55
 453  0.417  0.958  0.958- 167 1.55  17 1.55  25 1.55  70 1.55
 454  0.583  0.208  0.458-  73 1.55  35 1.55 168 1.55  28 1.55
 455  0.583  0.208  0.958-  34 1.55  27 1.55  72 1.55 169 1.55
 456  0.583  0.458  0.958-  74 1.55  36 1.55  29 1.55 171 1.55
 457  0.584  0.709  0.459-  39 1.54 172 1.55  31 1.55  77 1.55
 458  0.583  0.708  0.959-  38 1.55  30 1.55 173 1.55  76 1.55
 459  0.583  0.958  0.458-  79 1.55  33 1.55 174 1.55  26 1.55
 460  0.583  0.958  0.958- 175 1.55  32 1.55  25 1.55  78 1.55
 461  0.750  0.208  0.458-  35 1.54  81 1.54  43 1.55 176 1.55
 462  0.750  0.208  0.958- 177 1.55  34 1.55  42 1.55  80 1.55
 463  0.751  0.458  0.458-  45 1.54  37 1.54 178 1.55  83 1.55
 464  0.750  0.458  0.958-  44 1.55  82 1.55 179 1.55  36 1.55
 465  0.750  0.708  0.458- 180 1.55  39 1.55  47 1.55  85 1.55
 466  0.750  0.708  0.959-  46 1.55  38 1.55 181 1.55  84 1.55
 467  0.750  0.958  0.458-  87 1.54  41 1.55 182 1.55  33 1.55
 468  0.750  0.958  0.958- 183 1.55  40 1.55  32 1.55  86 1.55
 469  0.917  0.208  0.458-  43 1.54  89 1.55   4 1.55 184 1.55
 470  0.917  0.208  0.958-  42 1.55 185 1.55   3 1.55  88 1.55
 471  0.917  0.458  0.458-  45 1.54   6 1.54 186 1.55  91 1.55
 472  0.917  0.458  0.958- 187 1.55  44 1.55  90 1.55   5 1.55
 473  0.917  0.708  0.458-  47 1.55 188 1.55  93 1.55   8 1.55
 474  0.917  0.708  0.958-  46 1.55  92 1.55 189 1.55   7 1.55
 475  0.917  0.958  0.458-  41 1.55 190 1.55  95 1.55   2 1.55
 476  0.917  0.958  0.958- 191 1.55  40 1.55   1 1.55  94 1.55
 477  0.000  0.167  0.292- 184 1.55 144 1.55  96 1.55 192 1.55
 478  1.000  0.167  0.792- 193 1.55 145 1.55  97 1.55 185 1.55
 479  0.000  0.417  0.292- 186 1.54 146 1.55 194 1.55  98 1.55
 480  1.000  0.417  0.792- 195 1.55  99 1.55 147 1.55 187 1.55
 481  1.000  0.667  0.292- 196 1.55 188 1.55 100 1.55 148 1.55
 482  1.000  0.667  0.792- 197 1.55 101 1.55 189 1.55 149 1.55
 483  1.000  0.917  0.292- 198 1.55 102 1.55 190 1.55 150 1.55
 484  1.000  0.917  0.792- 199 1.55 103 1.55 191 1.55 151 1.55
 485  0.167  0.167  0.292- 152 1.55 104 1.55 144 1.55 200 1.55
 486  0.167  0.167  0.792- 201 1.55 145 1.55 105 1.55 153 1.55
 487  0.167  0.417  0.291- 154 1.54 146 1.55 202 1.55 106 1.55
 488  0.167  0.417  0.792- 203 1.55 147 1.55 107 1.55 155 1.55
 489  0.167  0.667  0.292- 204 1.55 148 1.55 108 1.55 156 1.55
 490  0.167  0.667  0.792- 149 1.55 205 1.55 109 1.55 157 1.55
 491  0.167  0.917  0.292- 150 1.55 206 1.55 110 1.55 158 1.55
 492  0.167  0.917  0.792- 151 1.55 207 1.55 111 1.55 159 1.55
 493  0.333  0.167  0.292- 112 1.55 208 1.55 152 1.55 160 1.55
 494  0.333  0.167  0.792- 209 1.55 153 1.55 161 1.55 113 1.55
 495  0.333  0.416  0.290- 210 1.54 162 1.54 114 1.55 154 1.55
 496  0.333  0.417  0.791- 115 1.55 155 1.55 163 1.55 211 1.55
 497  0.333  0.667  0.292- 212 1.55 164 1.55 156 1.55 116 1.55
 498  0.333  0.667  0.792- 157 1.54 165 1.55 117 1.55 213 1.55
 499  0.333  0.917  0.292- 118 1.55 214 1.55 158 1.55 166 1.55
 500  0.333  0.917  0.792- 159 1.55 215 1.55 167 1.55 119 1.55
 501  0.500  0.167  0.292- 120 1.55 216 1.55 168 1.55 160 1.55
 502  0.500  0.167  0.791- 169 1.55 217 1.55 161 1.55 121 1.55
 503  0.500  0.417  0.293- 122 1.54 162 1.55 218 1.55 170 1.56
 504  0.500  0.417  0.792- 123 1.54 171 1.55 163 1.55 219 1.57
 505  0.500  0.667  0.292- 220 1.54 172 1.55 164 1.55 124 1.57
 506  0.500  0.667  0.792- 125 1.55 173 1.55 165 1.55 221 1.55
 507  0.500  0.917  0.292- 222 1.55 126 1.55 174 1.55 166 1.55
 508  0.500  0.917  0.792- 223 1.55 175 1.55 167 1.55 127 1.55
 509  0.667  0.167  0.292- 128 1.55 224 1.55 168 1.55 176 1.55
 510  0.667  0.167  0.792- 225 1.55 177 1.55 169 1.55 129 1.55
 511  0.667  0.416  0.290- 226 1.54 170 1.54 130 1.55 178 1.55
 512  0.667  0.417  0.791- 131 1.55 179 1.55 171 1.55 227 1.55
 513  0.667  0.667  0.292- 228 1.54 180 1.55 172 1.55 132 1.55
 514  0.667  0.667  0.792- 181 1.54 173 1.55 133 1.55 229 1.55
 515  0.667  0.917  0.292- 134 1.55 230 1.55 182 1.55 174 1.55
 516  0.667  0.917  0.792- 183 1.55 231 1.55 175 1.55 135 1.55
 517  0.833  0.167  0.292- 176 1.54 136 1.55 232 1.55 184 1.55
 518  0.833  0.167  0.792- 233 1.55 185 1.55 137 1.55 177 1.55
 519  0.834  0.417  0.291- 178 1.54 186 1.55 234 1.55 138 1.55
 520  0.833  0.417  0.792- 235 1.55 187 1.55 139 1.55 179 1.55
 521  0.833  0.667  0.292- 236 1.55 188 1.55 140 1.55 180 1.55
 522  0.833  0.667  0.792- 141 1.55 237 1.55 181 1.55 189 1.55
 523  0.833  0.917  0.292- 238 1.55 190 1.55 182 1.55 142 1.55
 524  0.833  0.917  0.792- 191 1.55 239 1.55 143 1.55 183 1.55
 525  0.083  0.042  0.292- 104 1.55 150 1.55  96 1.55 240 1.55
 526  0.083  0.042  0.792- 241 1.55 151 1.55  97 1.55 105 1.55
 527  0.083  0.292  0.292- 106 1.55  98 1.55 242 1.55 144 1.55
 528  0.083  0.292  0.792- 243 1.55 107 1.55 145 1.55  99 1.55
 529  0.083  0.542  0.292- 244 1.55 100 1.55 108 1.55 146 1.55
 530  0.083  0.542  0.792- 245 1.55 147 1.55 101 1.55 109 1.55
 531  0.083  0.792  0.292- 246 1.55 102 1.55 148 1.55 110 1.55
 532  0.083  0.792  0.792- 247 1.55 103 1.55 149 1.55 111 1.55
 533  0.250  0.042  0.292- 158 1.55 248 1.55 104 1.55 112 1.55
 534  0.250  0.042  0.792- 249 1.55 105 1.55 159 1.55 113 1.55
 535  0.250  0.291  0.291- 114 1.54 250 1.55 152 1.55 106 1.55
 536  0.250  0.292  0.792- 251 1.55 107 1.55 153 1.55 115 1.55
 537  0.250  0.542  0.292- 252 1.55 108 1.55 154 1.55 116 1.55
 538  0.250  0.542  0.792- 109 1.55 155 1.55 117 1.55 253 1.55
 539  0.250  0.792  0.292- 254 1.55 110 1.55 118 1.55 156 1.55
 540  0.250  0.792  0.792- 111 1.55 255 1.55 157 1.55 119 1.55
 541  0.417  0.042  0.292- 166 1.55 256 1.55 112 1.55 120 1.55
 542  0.417  0.042  0.792- 257 1.55 113 1.55 121 1.55 167 1.55
 543  0.417  0.292  0.292- 258 1.54 160 1.54 114 1.55 122 1.55
 544  0.417  0.292  0.791- 115 1.55 123 1.55 161 1.55 259 1.55
 545  0.417  0.541  0.293- 116 1.54 162 1.55 260 1.55 124 1.55
 546  0.416  0.542  0.793- 117 1.54 163 1.55 125 1.55 261 1.55
 547  0.417  0.792  0.292- 262 1.55 126 1.55 118 1.55 164 1.55
 548  0.417  0.792  0.792- 119 1.55 263 1.55 165 1.55 127 1.55
 549  0.583  0.042  0.292- 174 1.55 128 1.55 264 1.55 120 1.55
 550  0.583  0.042  0.792- 129 1.55 265 1.55 121 1.55 175 1.55
 551  0.583  0.291  0.291- 266 1.54 168 1.55 130 1.55 122 1.55
 552  0.583  0.292  0.791- 131 1.55 123 1.55 169 1.55 267 1.55
 553  0.583  0.541  0.294- 132 1.54 124 1.55 170 1.56 268 1.56
 554  0.584  0.542  0.793- 133 1.54 171 1.55 125 1.55 269 1.55
 555  0.583  0.792  0.292- 270 1.55 134 1.55 126 1.55 172 1.55
 556  0.583  0.792  0.792- 135 1.55 271 1.55 127 1.55 173 1.55
 557  0.750  0.042  0.292- 182 1.55 128 1.55 272 1.55 136 1.55
 558  0.750  0.042  0.792- 273 1.55 137 1.55 129 1.55 183 1.55
 559  0.750  0.291  0.291- 130 1.54 274 1.55 176 1.55 138 1.55
 560  0.750  0.292  0.791- 275 1.55 139 1.55 177 1.55 131 1.55
 561  0.750  0.542  0.292- 276 1.55 140 1.55 178 1.55 132 1.55
 562  0.750  0.542  0.791- 179 1.55 133 1.55 141 1.55 277 1.55
 563  0.750  0.792  0.292- 278 1.55 142 1.55 134 1.55 180 1.55
 564  0.750  0.792  0.792- 143 1.55 279 1.55 135 1.55 181 1.55
 565  0.917  0.042  0.292- 136 1.55 190 1.55 280 1.55  96 1.55
 566  0.917  0.042  0.792- 281 1.55 137 1.55 191 1.55  97 1.55
 567  0.917  0.292  0.291- 138 1.54  98 1.55 282 1.55 184 1.55
 568  0.917  0.292  0.792- 283 1.55 139 1.55  99 1.55 185 1.55
 569  0.917  0.542  0.292- 284 1.55 100 1.55 186 1.55 140 1.55
 570  0.917  0.542  0.792- 285 1.55 141 1.55 187 1.55 101 1.55
 571  0.917  0.792  0.292- 286 1.55 142 1.55 102 1.55 188 1.55
 572  0.917  0.792  0.792- 287 1.55 143 1.55 189 1.55 103 1.55
 573  0.469  0.486  0.486- 448 1.09
 574  0.500  0.502  0.633- 269 1.49 261 1.49 219 1.51
 575  0.500  0.590  0.458-  77 1.49  69 1.49 124 1.51
 576  0.591  0.454  0.454-  75 1.48 170 1.48  37 1.48
 
  LATTYP: Found a simple monoclinic cell.
 ALAT       =    12.3703241348
 B/A-ratio  =     1.2248453018
 C/A-ratio  =     1.4141600350
 COS(beta)  =    -0.0000282295
  
  Lattice vectors:
  
 A1 = (   0.0000000000,  -0.0003492082,  12.3703241299)
 A2 = (  15.1517333984,   0.0000000000,   0.0000000000)
 A3 = (   0.0000000000,  17.4936180115,   0.0000000000)


Analysis of symmetry for initial positions (statically):
=====================================================================
 Subroutine PRICEL returns:
 Original cell was already a primitive cell.
 

 Routine SETGRP: Setting up the symmetry group for a 
 simple monoclinic supercell.


 Subroutine GETGRP returns: Found  1 space group operations
 (whereof  1 operations were pure point group operations)
 out of a pool of  4 trial point group operations.


The static configuration has the point symmetry C_1 .


Analysis of symmetry for dynamics (positions and initial velocities):
=====================================================================
 Subroutine PRICEL returns:
 Original cell was already a primitive cell.
 

 Routine SETGRP: Setting up the symmetry group for a 
 simple monoclinic supercell.


 Subroutine GETGRP returns: Found  1 space group operations
 (whereof  1 operations were pure point group operations)
 out of a pool of  4 trial point group operations.


The dynamic configuration has the point symmetry C_1 .


Analysis of structural, dynamic, and magnetic symmetry:
=====================================================================
 Subroutine PRICEL returns:
 Original cell was already a primitive cell.
 

 Routine SETGRP: Setting up the symmetry group for a 
 simple monoclinic supercell.


 Subroutine GETGRP returns: Found  1 space group operations
 (whereof  1 operations were pure point group operations)
 out of a pool of  4 trial point group operations.


The overall configuration has the point symmetry C_1 .


 Subroutine INISYM returns: Found  1 space group operations
 (whereof  1 operations are pure point group operations),
 and found     1 'primitive' translations


----------------------------------------------------------------------------------------

                                     Primitive cell                                     

  volume of cell :    3278.8612

  direct lattice vectors                    reciprocal lattice vectors
    15.151733398  0.000000000  0.000000000     0.065999049  0.000000000  0.000000000
     0.000000000 17.493618012  0.000000000     0.000000000  0.057163704  0.000001614
     0.000000000 -0.000349208 12.370324130     0.000000000  0.000000000  0.080838626

  length of vectors
    15.151733398 17.493618012 12.370324135     0.065999049  0.057163704  0.080838626

  position of ions in fractional coordinates (direct lattice)
     0.999987426  0.999971458  0.000001506
     0.999982002  0.999932819  0.500019216
     0.999999462  0.249973615  0.999884276
     0.000000688  0.249913428  0.499928784
     0.999962902  0.499992397  0.999928552
     0.999917756  0.499930653  0.499922160
     0.999970278  0.749977799  0.000036477
     0.999938966  0.749949041  0.500039188
     0.166655167  0.999990467  0.000011500
     0.166582073  0.000006129  0.500017512
     0.166621136  0.249966864  0.999865978
     0.166554487  0.249865817  0.499939542
     0.166624419  0.499997567  0.000015534
     0.166066126  0.499876976  0.499910789
     0.166624224  0.749999323  0.000109358
     0.166628737  0.749981928  0.500056923
     0.333352138  0.000027118  0.999989635
     0.333336629  0.000095676  0.500006389
     0.333333640  0.250036189  0.999920507
     0.332940463  0.249595152  0.499804675
     0.333309012  0.500049954  0.000258493
     0.332113748  0.499307426  0.499366787
     0.333314153  0.749999676  0.000199024
     0.333086684  0.750545750  0.500114202
     0.500006551  0.000038459  0.999965091
     0.499999260  0.000067179  0.499997824
     0.499997929  0.250034103  0.999974525
     0.500347938  0.250514905  0.499770097
     0.500012008  0.500017395  0.000348943
     0.499995213  0.750030559  0.000154038
     0.499964955  0.750171270  0.500237201
     0.666649099  0.000032486  0.999976586
     0.666681973  0.000048001  0.500009363
     0.666658109  0.250032268  0.999831625
     0.667084880  0.249549140  0.499757293
     0.666637538  0.500027119  0.000247205
     0.666256413  0.498170324  0.498203213
     0.666654830  0.749969866  0.000219677
     0.666805231  0.750472629  0.500099115
     0.833327014  0.999987312  0.000003286
     0.833402615  0.999978136  0.500016325
     0.833355834  0.249966112  0.999814980
     0.833486817  0.249820370  0.499887785
     0.833293788  0.499982634  0.999939713
     0.833707818  0.499823057  0.499861092
     0.833318016  0.749986169  0.000110442
     0.833206102  0.749799498  0.500055306
     0.083314111  0.124969064  0.999932118
     0.083270875  0.124926165  0.499978707
     0.083285500  0.374969717  0.999829852
     0.083217136  0.374913717  0.499914166
     0.083276531  0.624991082  0.000043020
     0.083282386  0.624983127  0.500006048
     0.083305441  0.874982548  0.000043191
     0.083278668  0.874963171  0.500030342
     0.249995039  0.125002049  0.999929355
     0.249864412  0.124871368  0.499948247
     0.249883691  0.374949041  0.999758755
     0.249654995  0.374792345  0.499877039
     0.249873042  0.625043233  0.000406952
     0.250257700  0.624894900  0.500057148
     0.249993809  0.875002713  0.000066953
     0.249882775  0.875205970  0.500034501
     0.416666961  0.125054390  0.999914448
     0.416769606  0.125154161  0.499926394
     0.416768953  0.375059105  0.000166447
     0.415401052  0.374466803  0.499042714
     0.416608547  0.625011561  0.000511233
     0.417358350  0.625208080  0.500265868
     0.416674054  0.875020802  0.000047937
     0.416626131  0.875146905  0.500064529
     0.583323271  0.125069382  0.999846065
     0.583341038  0.125049007  0.499912802
     0.583303814  0.375022972  0.000027814
     0.585101879  0.375786537  0.497882317
     0.583333820  0.624920242  0.000624267
     0.582344534  0.625138959  0.500206582
     0.583328504  0.875019693  0.000046616
     0.583352338  0.875124642  0.500069305
     0.749995775  0.125008134  0.999892464
     0.750144694  0.124846335  0.499929790
     0.750083634  0.374942743  0.999701497
     0.750462043  0.374659693  0.499816995
     0.750039224  0.625017548  0.000377498
     0.749372679  0.624371758  0.500052350
     0.749991425  0.874989300  0.000069053
     0.750063984  0.875152236  0.500033435
     0.916667633  0.124965501  0.999911005
     0.916720092  0.124914113  0.499974729
     0.916687877  0.374969296  0.999795032
     0.916784667  0.374881330  0.499873290
     0.916605801  0.624974909  0.999982268
     0.916525393  0.624934717  0.499998380
     0.916659262  0.874979298  0.000037081
     0.916629473  0.874911748  0.500030457
     0.000001522  0.083241359  0.333317867
     0.999986328  0.083325257  0.833312051
     0.000018585  0.333236350  0.333226451
     0.999975227  0.333323779  0.833222813
     0.999951785  0.583276327  0.333318642
     0.999925445  0.583319590  0.833307082
     0.999966191  0.833275814  0.333382745
     0.999970439  0.833307920  0.833359695
     0.166597898  0.083252916  0.333288721
     0.166668265  0.083346458  0.833297391
     0.166578342  0.333214140  0.333201226
     0.166647915  0.333345816  0.833159058
     0.166653708  0.583280143  0.333423868
     0.166641506  0.583336074  0.833348172
     0.166648611  0.833310341  0.333382731
     0.166637013  0.833356085  0.833396322
     0.333295598  0.083329436  0.333285761
     0.333338515  0.083411785  0.833274598
     0.332992089  0.332965236  0.332989425
     0.333384710  0.333494470  0.833180389
     0.333445629  0.583146478  0.333836083
     0.333068144  0.583553767  0.834146302
     0.333282079  0.833392141  0.333415281
     0.333305169  0.833382431  0.833418076
     0.500001682  0.083321931  0.333294147
     0.500004982  0.083455984  0.833256865
     0.500014846  0.333234833  0.333249154
     0.499988663  0.333508772  0.833376854
     0.499930320  0.582862149  0.336373227
     0.499951895  0.583514660  0.833736410
     0.499984757  0.833313359  0.333456037
     0.499994746  0.833389316  0.833403311
     0.666715118  0.083282071  0.333260572
     0.666651708  0.083423977  0.833250459
     0.667104625  0.332828408  0.332834362
     0.666593195  0.333501455  0.833038992
     0.666433706  0.583083215  0.333812558
     0.666790833  0.583510395  0.834098559
     0.666676401  0.833378509  0.333417259
     0.666669966  0.833362969  0.833422653
     0.833384929  0.083217753  0.333272712
     0.833306097  0.083351334  0.833298037
     0.833504789  0.333152020  0.333117532
     0.833299943  0.333347567  0.833130125
     0.833256203  0.583225674  0.333380948
     0.833163955  0.583269058  0.833136235
     0.833274676  0.833259072  0.333385690
     0.833312602  0.833333543  0.833388076
     0.083309054  0.208238711  0.333260385
     0.083329527  0.208327459  0.833257213
     0.083236090  0.458256890  0.333229877
     0.083325388  0.458341280  0.833271667
     0.083313322  0.708297262  0.333420559
     0.083315777  0.708316273  0.833365824
     0.083320800  0.958273698  0.333354875
     0.083325546  0.958328989  0.833369571
     0.249854313  0.208160916  0.333241505
     0.250005869  0.208396478  0.833262947
     0.249639634  0.458165951  0.333149545
     0.250031341  0.458406245  0.833297460
     0.250019171  0.708285680  0.333523711
     0.249951107  0.708401815  0.833503168
     0.249967413  0.958352084  0.333367682
     0.249995671  0.958373458  0.833387872
     0.416653403  0.208303431  0.333246796
     0.416659097  0.208513392  0.833166496
     0.415372894  0.457490528  0.332950576
     0.416620816  0.458544056  0.833366938
     0.416592810  0.708305202  0.333730286
     0.416623121  0.708388258  0.833568515
     0.416638681  0.958351332  0.333355435
     0.416655603  0.958401952  0.833332701
     0.583409292  0.208239190  0.333201888
     0.583330950  0.208567292  0.832982810
     0.585114352  0.457177665  0.335041764
     0.583310700  0.458538415  0.833350303
     0.583340333  0.708315364  0.333719113
     0.583317457  0.708346691  0.833588524
     0.583349021  0.958342434  0.333350125
     0.583350503  0.958391971  0.833337764
     0.750180805  0.208106849  0.333176662
     0.749959554  0.208403975  0.833218073
     0.750469531  0.458086443  0.332987934
     0.749835425  0.458374222  0.833177948
     0.749873520  0.708195402  0.333525786
     0.749947602  0.708361693  0.833476145
     0.750012926  0.958325779  0.333367803
     0.749994621  0.958365819  0.833389743
     0.916710301  0.208208489  0.333230878
     0.916636350  0.208334581  0.833247841
     0.916762124  0.458225416  0.333188750
     0.916594875  0.458334804  0.833225777
     0.916596639  0.708272907  0.333420600
     0.916582329  0.708288886  0.833324145
     0.916648844  0.958253511  0.333355333
     0.916635123  0.958329581  0.833370275
     0.000001357  0.166593011  0.166571837
     0.999984779  0.166644817  0.666625758
     0.999999150  0.416601470  0.166502978
     0.999963133  0.416641208  0.666582231
     0.999951707  0.666642903  0.166697821
     0.999926094  0.666626462  0.666653120
     0.999985411  0.916619122  0.166688755
     0.999969741  0.916636970  0.666688186
     0.166595758  0.166596657  0.166569156
     0.166638044  0.166680569  0.666624268
     0.166538963  0.416585874  0.166481136
     0.166659167  0.416695236  0.666583693
     0.166610591  0.666653975  0.166865633
     0.166715580  0.666640715  0.666675023
     0.166651130  0.916645063  0.166701935
     0.166620195  0.916709873  0.666720310
     0.333303278  0.166646561  0.166597215
     0.333349958  0.166808763  0.666605783
     0.332924013  0.416399099  0.166218425
     0.333475961  0.416922677  0.666328879
     0.333329003  0.666615460  0.167056582
     0.333446986  0.666773187  0.666837966
     0.333335859  0.916680059  0.166693774
     0.333317747  0.916770130  0.666711319
     0.500000783  0.166641428  0.166595542
     0.500033729  0.166954157  0.666469147
     0.500341635  0.416712317  0.167410324
     0.499933408  0.418546119  0.665111189
     0.499977218  0.666748596  0.166987448
     0.499927058  0.666707639  0.666783996
     0.500000611  0.916674103  0.166691470
     0.499994432  0.916754707  0.666683576
     0.666702609  0.166615601  0.166536395
     0.666638428  0.166808049  0.666564112
     0.667086722  0.416363370  0.166156553
     0.666401586  0.416889526  0.666226298
     0.666615482  0.666556132  0.167098968
     0.666376488  0.666682359  0.666771972
     0.666657171  0.916679416  0.166689768
     0.666665285  0.916740500  0.666718148
     0.833393321  0.166570901  0.166523783
     0.833336499  0.166670958  0.666613824
     0.833494158  0.416555014  0.166406319
     0.833255373  0.416661887  0.666526813
     0.833302219  0.666627750  0.166860643
     0.833112815  0.666545431  0.666593529
     0.833317770  0.916630216  0.166698459
     0.833326426  0.916683368  0.666719270
     0.083323436  0.041613516  0.166632910
     0.083312099  0.041659074  0.666673222
     0.083314863  0.291605403  0.166518495
     0.083322535  0.291652830  0.666559975
     0.083304438  0.541636442  0.166658287
     0.083301767  0.541653212  0.666657445
     0.083314756  0.791641147  0.166720065
     0.083307455  0.791647838  0.666687692
     0.249983161  0.041649817  0.166607483
     0.249981811  0.041726088  0.666644019
     0.249866927  0.291546803  0.166445279
     0.250011672  0.291747185  0.666534501
     0.249960184  0.541627107  0.166835286
     0.250260134  0.541644932  0.666567795
     0.249986572  0.791643959  0.166769284
     0.249950275  0.791764020  0.666747519
     0.416648325  0.041672900  0.166619528
     0.416676406  0.041800741  0.666616240
     0.416659821  0.291618247  0.166643336
     0.416762082  0.292209028  0.666303935
     0.416733130  0.541615667  0.167522717
     0.417360506  0.541875871  0.666984586
     0.416652163  0.791670516  0.166793147
     0.416632023  0.791762302  0.666774261
     0.583344825  0.041674055  0.166592971
     0.583341463  0.041775139  0.666623686
     0.583391579  0.291579762  0.166557289
     0.583275626  0.292362345  0.665687349
     0.583281355  0.541276486  0.167913423
     0.582331222  0.541820340  0.666915051
     0.583329685  0.791671453  0.166789397
     0.583317601  0.791733762  0.666774772
     0.750008173  0.041636777  0.166589227
     0.750001320  0.041715917  0.666643168
     0.750159821  0.291499655  0.166366189
     0.749980102  0.291722911  0.666488671
     0.749995368  0.541586448  0.166802512
     0.749361249  0.541460388  0.665904497
     0.749963134  0.791615874  0.166781659
     0.749960779  0.791708031  0.666732447
     0.916656131  0.041596984  0.166624678
     0.916651799  0.041647959  0.666674694
     0.916708492  0.291584505  0.166470765
     0.916650532  0.291642265  0.666553230
     0.916641790  0.541631570  0.166625378
     0.916510131  0.541632379  0.666608720
     0.916629675  0.791632915  0.166719240
     0.916595210  0.791605944  0.666673106
     0.999989956  0.999942222  0.124973053
     0.999981439  0.999966885  0.625014380
     0.000008665  0.249945695  0.124857086
     0.999989304  0.249969403  0.624902338
     0.999979176  0.499984870  0.124909767
     0.999915411  0.499997080  0.624949447
     0.999970660  0.749988983  0.125022410
     0.999947693  0.749976146  0.625012557
     0.166647406  0.999966426  0.124971606
     0.166617022  0.000022647  0.625004694
     0.166600645  0.249916844  0.124801838
     0.166650946  0.249995552  0.624914418
     0.166621391  0.499980137  0.124964239
     0.166621875  0.500039094  0.624957591
     0.166622706  0.749987578  0.125079133
     0.166636228  0.750007728  0.625027837
     0.333339114  0.999996662  0.124952938
     0.333334683  0.000096541  0.624990834
     0.333312649  0.249971442  0.124866673
     0.333366108  0.250122682  0.624834854
     0.333327282  0.499952229  0.125186023
     0.333682010  0.500010581  0.624578187
     0.333322781  0.749963828  0.125160565
     0.333217575  0.750175954  0.625129217
     0.500000585  0.000004566  0.124948444
     0.500002963  0.000074033  0.624984259
     0.500010571  0.249957041  0.124912240
     0.500055725  0.250420978  0.624631947
     0.500042060  0.499939680  0.125622134
     0.500000643  0.750016891  0.125038973
     0.499971127  0.750078482  0.625176597
     0.666658690  0.999999952  0.124936551
     0.666670035  0.000070221  0.624998108
     0.666701664  0.249938268  0.124795603
     0.666666124  0.250135659  0.624706191
     0.666674227  0.499875090  0.125238174
     0.665389789  0.499654768  0.624016144
     0.666639309  0.749934252  0.125176655
     0.666693020  0.750114103  0.625103852
     0.833333644  0.999954172  0.124958167
     0.833352597  0.000006158  0.625004379
     0.833404590  0.249896234  0.124762187
     0.833346094  0.249979878  0.624885743
     0.833344830  0.499962773  0.124916027
     0.833185462  0.499966319  0.624808507
     0.833316560  0.749971234  0.125087317
     0.833238290  0.749927454  0.625003838
     0.083301881  0.124929937  0.124901446
     0.083298361  0.124974387  0.624970225
     0.083282225  0.374951764  0.124782709
     0.083297053  0.374997250  0.624909802
     0.083278334  0.624997321  0.125036094
     0.083294974  0.625000438  0.624997484
     0.083305809  0.874967882  0.125021117
     0.083294229  0.874989805  0.625025453
     0.249969684  0.124973510  0.124906389
     0.249978123  0.125038125  0.624956554
     0.249811124  0.374869798  0.124513076
     0.249995853  0.375064489  0.624851546
     0.249922256  0.625009518  0.125266029
     0.250133970  0.625021616  0.625031895
     0.249992300  0.874988900  0.125040126
     0.249927754  0.875104666  0.625049210
     0.416656172  0.124992150  0.124906039
     0.416717473  0.125175710  0.624896923
     0.416736536  0.374983659  0.125233149
     0.416716110  0.375664367  0.624129332
     0.416688455  0.624962979  0.125462429
     0.416611792  0.625178305  0.625238812
     0.416669586  0.874992978  0.125024558
     0.416644819  0.875090057  0.625071411
     0.583330184  0.124998405  0.124863990
     0.583318424  0.125132800  0.624895812
     0.583440758  0.374927736  0.124982607
     0.583226943  0.376286416  0.623606928
     0.583271677  0.624844218  0.125751035
     0.583208896  0.625112783  0.625176719
     0.583332521  0.874995308  0.125022044
     0.583332401  0.875073603  0.625071250
     0.750027375  0.124958069  0.124861096
     0.750008936  0.125036842  0.624935199
     0.750231455  0.374839259  0.124498653
     0.749985394  0.375020758  0.624798855
     0.750017173  0.624975270  0.125259341
     0.749627703  0.624859016  0.624892443
     0.749982680  0.874975156  0.125048111
     0.750024235  0.875065579  0.625045525
     0.916681834  0.124919045  0.124881830
     0.916675412  0.124964753  0.624972837
     0.916734653  0.374939718  0.124739288
     0.916646127  0.374978746  0.624877389
     0.916617523  0.624984509  0.125011342
     0.916537364  0.624965226  0.624969069
     0.916656334  0.874964854  0.125017243
     0.916633008  0.874959801  0.625019891
     0.999989292  0.083239108  0.458335689
     0.999992248  0.083303498  0.958276933
     0.000010680  0.333244566  0.458254931
     0.999990708  0.333313514  0.958179635
     0.999911532  0.583308035  0.458320474
     0.999942523  0.583343014  0.958300569
     0.999958698  0.833281217  0.458370690
     0.999977795  0.833314225  0.958354265
     0.166567022  0.083230923  0.458311930
     0.166663273  0.083319141  0.958270406
     0.166501241  0.333187767  0.458255668
     0.166607079  0.333307803  0.958068595
     0.166614260  0.583317890  0.458396129
     0.166609672  0.583355627  0.958394781
     0.166611218  0.833353611  0.458372883
     0.166634006  0.833334997  0.958381918
     0.333335569  0.083390924  0.458283037
     0.333345713  0.083361253  0.958252711
     0.332813909  0.332342728  0.458170446
     0.333370829  0.333390016  0.958237260
     0.333680526  0.583017013  0.458519178
     0.333094868  0.583479693  0.958849921
     0.333084809  0.833643647  0.458445895
     0.333316900  0.833338975  0.958403518
     0.500019202  0.083367881  0.458303259
     0.499998932  0.083387501  0.958247600
     0.500089553  0.334194939  0.457657525
     0.500013526  0.333320751  0.958343133
     0.499973168  0.583399668  0.958737339
     0.499981418  0.833432004  0.458486983
     0.500002298  0.833352484  0.958358800
     0.666709998  0.083320308  0.458272775
     0.666649616  0.083375263  0.958225559
     0.667443833  0.332308618  0.457946442
     0.666633992  0.333378414  0.958105180
     0.665429063  0.582535302  0.458232030
     0.666830239  0.583445837  0.958858555
     0.666870123  0.833598564  0.458443616
     0.666666655  0.833323675  0.958408660
     0.833432123  0.083211073  0.458305203
     0.833319860  0.083320300  0.958258592
     0.833600185  0.333116455  0.458168693
     0.833362894  0.333311893  0.958035981
     0.833175561  0.583180134  0.458346456
     0.833241087  0.583315657  0.958278401
     0.833266667  0.833246117  0.458368812
     0.833332226  0.833321740  0.958374913
     0.083290739  0.208230004  0.458282536
     0.083331124  0.208305634  0.958215948
     0.083029165  0.458320945  0.458294441
     0.083312792  0.458341392  0.958240116
     0.083280575  0.708327733  0.458399080
     0.083308476  0.708331407  0.958361859
     0.083304139  0.958281363  0.458357682
     0.083326317  0.958313736  0.958345096
     0.249811599  0.208004757  0.458283380
     0.249994447  0.208349360  0.958234388
     0.248848014  0.458347727  0.458365511
     0.249984002  0.458366230  0.958312143
     0.249984681  0.708382286  0.458479103
     0.249931207  0.708360478  0.958511301
     0.249916725  0.958442864  0.458377033
     0.250000525  0.958344025  0.958367876
     0.416725736  0.208506368  0.458188622
     0.416659420  0.208402085  0.958205548
     0.410939014  0.455279704  0.455282660
     0.416652404  0.458378741  0.958475650
     0.415937693  0.709021557  0.458860983
     0.416635588  0.708343289  0.958564835
     0.416641182  0.958405948  0.458364782
     0.416665585  0.958361205  0.958314036
     0.583463135  0.208323296  0.458178954
     0.583325128  0.208444644  0.958097248
     0.583328987  0.458374103  0.958427854
     0.583991634  0.709008495  0.458848501
     0.583342502  0.708298652  0.958633204
     0.583361090  0.958386976  0.458364749
     0.583345612  0.958358282  0.958314791
     0.750242539  0.207998589  0.458214120
     0.749978669  0.208350497  0.958182521
[...]
 196       0.006    -0.001    -0.006       1.065
 197      -0.007    -0.005     0.009       0.218
 198       0.001     0.001    -0.002       0.261
 199       0.002     0.001    -0.003       0.194
 200      -0.001    -0.001     0.002       0.115
 201      -0.003    -0.001     0.005       0.396
 202       0.006    -0.000    -0.007       0.897
 203      -0.013    -0.011     0.014       0.153
 204       0.004    -0.004     0.013      -0.621
 205      -0.011     0.010    -0.014      -1.448
 206      -0.001    -0.001     0.004       0.125
 207      -0.001     0.000     0.006       0.298
 208       0.004    -0.001    -0.005       1.039
 209      -0.009     0.005    -0.010      -1.436
 210       0.024     0.015     0.055      -0.163
 211      -0.088     0.001    -0.100      -0.888
 212      -0.016     0.013    -0.023      -1.280
 213      -0.084    -0.056    -0.108      -0.260
 214       0.004    -0.003    -0.007       1.191
 215      -0.006    -0.005     0.008       0.161
 216       0.014     0.007     0.024      -0.320
 217       0.003    -0.001     0.026      -0.155
 218      -0.017    -0.008     0.036       0.250
 219      -0.414     0.129    -0.447      -1.216
 220       0.540     0.538     0.790      -0.002
 221      -0.136    -0.052    -0.172      -0.490
 222       0.008    -0.002    -0.008       1.226
 223      -0.009    -0.003     0.011       0.509
 224       0.004    -0.001    -0.005       1.102
 225      -0.008     0.006    -0.009      -1.563
 226       0.007    -0.001     0.032      -0.258
 227      -0.089    -0.001    -0.101      -0.865
 228      -0.016     0.013    -0.023      -1.258
 229      -0.085    -0.056    -0.108      -0.264
 230       0.004    -0.003    -0.006       1.197
 231      -0.006    -0.005     0.008       0.153
 232      -0.001    -0.001     0.002       0.124
 233      -0.003    -0.001     0.006       0.400
 234       0.006     0.000    -0.007       0.926
 235       0.014    -0.011    -0.014       1.811
 236      -0.005     0.003     0.011       0.721
 237      -0.010     0.010    -0.014      -1.472
 238      -0.001    -0.000     0.004       0.127
 239      -0.001     0.001     0.007       0.289
 240      -0.002    -0.000     0.002       0.951
 241       0.003     0.000    -0.003       0.758
 242      -0.002    -0.001     0.003       0.500
 243      -0.005    -0.003     0.006       0.331
 244       0.006    -0.001    -0.009       0.818
 245       0.005     0.001     0.024      -0.171
 246      -0.002    -0.000     0.005       0.319
 247      -0.004    -0.003     0.005       0.266
 248      -0.003    -0.002     0.003       0.289
 249      -0.003    -0.001     0.006       0.249
 250      -0.005    -0.000     0.005       0.941
 251       0.011    -0.011    -0.012       1.820
 252       0.010    -0.008    -0.017       1.077
 253      -0.026    -0.016     0.036       0.264
 254       0.006     0.002     0.016      -0.230
 255      -0.005    -0.003     0.016       0.163
 256       0.005    -0.002    -0.006       1.262
 257      -0.003    -0.001     0.011       0.189
 258      -0.008     0.001     0.009       0.988
 259      -0.059    -0.020    -0.069      -0.565
 260      -0.063    -0.015    -0.069      -0.703
 261      -1.080    -0.848    -1.146      -0.202
 262      -0.018     0.000    -0.025      -0.709
 263      -0.019     0.012    -0.026      -1.176
 264       0.005    -0.002    -0.006       1.257
 265      -0.003    -0.001     0.011       0.190
 266       0.008    -0.001    -0.010       0.915
 267      -0.057    -0.017    -0.066      -0.595
 268      -0.057    -0.010    -0.062      -0.770
 269      -1.165    -0.937    -1.227      -0.186
 270      -0.018     0.000    -0.025      -0.709
 271      -0.018     0.013    -0.025      -1.224
 272      -0.003    -0.002     0.003       0.275
 273      -0.003    -0.001     0.006       0.254
 274      -0.004     0.000     0.005       0.843
 275       0.011    -0.011    -0.012       1.838
 276       0.010    -0.008    -0.017       1.048
 277      -0.027    -0.018     0.034       0.268
 278       0.006     0.002     0.016      -0.224
 279      -0.004    -0.002     0.017       0.145
 280      -0.002     0.000     0.002       0.965
 281       0.003     0.001    -0.003       0.789
 282      -0.002    -0.001     0.003       0.497
 283      -0.005    -0.003     0.006       0.350
 284       0.006    -0.002    -0.009       0.809
 285       0.005     0.001     0.024      -0.170
 286      -0.002    -0.000     0.005       0.307
 287      -0.004    -0.003     0.005       0.267
 288       0.002     0.000    -0.002       0.659
 289      -0.002     0.002     0.003       1.446
 290      -0.001    -0.001     0.002       0.233
 291      -0.004    -0.000     0.004       0.859
 292       0.006    -0.000    -0.007       0.824
 293      -0.003    -0.000     0.017       0.146
 294       0.001    -0.001     0.006      -0.441
 295      -0.004    -0.003     0.007       0.136
 296      -0.002    -0.001     0.003       0.294
 297       0.003    -0.002    -0.004       1.074
 298      -0.002     0.000     0.003       0.737
 299       0.003     0.001     0.014      -0.103
 300      -0.005     0.005     0.010       0.992
 301       0.010     0.008     0.043      -0.050
 302      -0.004    -0.001     0.004       0.656
 303      -0.006    -0.005     0.012       0.084
 304      -0.003    -0.001     0.006       0.422
 305      -0.004    -0.003     0.009       0.139
 306       0.004     0.001    -0.006       0.410
 307      -0.004    -0.003     0.023       0.070
 308       0.019     0.009     0.044      -0.229
 309       0.550     0.538     0.798      -0.016
 310      -0.005    -0.002     0.013       0.282
 311      -0.025     0.005    -0.041      -0.736
 312      -0.004     0.001     0.012       0.422
 313      -0.002     0.001     0.015       0.228
 314       0.017     0.006     0.033      -0.350
 315       0.056     0.049     0.095      -0.068
 316      -0.010    -0.007     0.073       0.044
 317       0.156     0.141     0.259      -0.058
 318       0.063     0.004     0.102      -0.575
 319      -0.003    -0.001     0.006       0.419
 320      -0.004    -0.003     0.009       0.133
 321       0.004     0.002    -0.006       0.414
 322      -0.007    -0.006     0.019       0.063
 323       0.014     0.004     0.039      -0.244
 324       0.576     0.566     0.826      -0.013
 325      -0.005    -0.002     0.013       0.290
 326      -0.024     0.005    -0.041      -0.722
 327      -0.002    -0.001     0.002       0.305
 328       0.003    -0.002    -0.004       0.997
 329      -0.002    -0.000     0.003       0.738
 330       0.003     0.002     0.015      -0.102
 331      -0.005     0.005     0.010       0.990
 332       0.011     0.009     0.044      -0.049
 333       0.004    -0.002    -0.004       1.314
 334      -0.006    -0.005     0.012       0.079
 335      -0.001     0.000     0.002       0.955
 336       0.003     0.000    -0.003       0.769
 337      -0.004     0.000     0.005       0.980
 338      -0.001    -0.000     0.015       0.027
 339       0.005    -0.001    -0.008       0.698
 340      -0.009    -0.007     0.012       0.228
 341      -0.002    -0.001     0.002       0.466
 342      -0.003    -0.000     0.004       0.802
 343      -0.002    -0.000     0.004       0.369
 344      -0.003    -0.001     0.007       0.170
 345      -0.006     0.001     0.009       0.825
 346       0.068     0.063     0.123      -0.040
 347       0.055     0.042     0.065      -0.203
 348      -0.030    -0.001    -0.053      -0.555
 349      -0.003    -0.001     0.005       0.423
 350      -0.007    -0.006     0.007       0.152
 351       0.003    -0.002     0.009      -0.519
 352      -0.006    -0.005     0.011       0.159
 353      -0.009    -0.001     0.024       0.344
 354       0.313     0.265     0.478      -0.099
 355       0.031     0.026     0.080      -0.057
 356      -0.169     0.038     0.202       1.023
 357       0.006    -0.001     0.021      -0.305
 358       0.005    -0.003     0.024      -0.340
 359       0.004    -0.001     0.010      -0.475
 360      -0.007    -0.005     0.011       0.159
 361      -0.013    -0.006     0.021       0.359
 362       0.331     0.292     0.503      -0.076
 363       0.053     0.048     0.101      -0.052
 364      -0.155     0.053     0.233       0.893
 365       0.005    -0.001     0.021      -0.303
 366       0.005    -0.003     0.023      -0.338
 367      -0.002    -0.000     0.004       0.351
 368      -0.003    -0.001     0.007       0.177
 369      -0.007     0.001     0.007       1.054
 370       0.068     0.062     0.121      -0.045
 371       0.053     0.040     0.062      -0.208
 372      -0.041    -0.013    -0.065      -0.443
 373      -0.003    -0.001     0.005       0.430
 374      -0.007     0.006    -0.008      -1.648
 375      -0.001     0.000     0.002       0.981
 376       0.003     0.001    -0.003       0.753
 377      -0.004     0.001     0.005       0.958
 378       0.000    -0.000     0.016      -0.025
 379       0.004    -0.001    -0.009       0.655
 380      -0.009    -0.006     0.012       0.225
 381      -0.002    -0.001     0.002       0.479
 382      -0.003    -0.000     0.004       0.834
 383       0.002     0.001    -0.003       0.457
 384       0.002     0.000    -0.002       0.695
 385      -0.002    -0.001     0.008       0.151
 386      -0.002    -0.000     0.005       0.510
 387      -0.003     0.001     0.018       0.199
 388      -0.006     0.001     0.008       0.934
 389       0.004    -0.001    -0.004       1.215
 390      -0.001    -0.000     0.002       0.228
 391      -0.003    -0.000     0.005       0.453
 392      -0.002    -0.001     0.003       0.272
 393      -0.005    -0.005     0.012       0.027
 394       0.004    -0.002     0.008      -0.679
 395       0.009     0.005     0.041      -0.104
 396       0.006    -0.005     0.012      -0.867
 397       0.007     0.005     0.019      -0.109
 398       0.002    -0.001    -0.003       0.982
 399      -0.004    -0.003     0.009       0.115
 400      -0.004    -0.001     0.005       0.503
 401      -0.041     0.003    -0.048      -0.920
 402       0.009    -0.003    -0.011       1.067
 403       0.588     0.571     0.827      -0.020
 404       0.069     0.058     0.156      -0.073
 405       0.114     0.108     0.189      -0.033
 406       0.004     0.002    -0.005       0.327
 407      -0.006    -0.003     0.011       0.282
 408      -0.005    -0.001     0.008       0.601
 409      -0.042     0.027    -0.053      -1.318
 410       0.160     0.149     0.262      -0.040
 411       0.077     0.077     0.187      -0.003
 412       0.099     0.095     0.188      -0.022
 413       0.028     0.015     0.052      -0.260
 414      -0.004    -0.004     0.008       0.089
 415      -0.004    -0.001     0.005       0.497
 416      -0.023    -0.017     0.025       0.224
 417      -0.010    -0.001     0.010       0.894
 418       0.614     0.599     0.855      -0.018
 419       0.063     0.051     0.146      -0.079
 420       0.108     0.102     0.181      -0.035
 421       0.004     0.002    -0.005       0.327
 422      -0.002     0.000     0.006       0.435
 423      -0.002    -0.001     0.003       0.285
 424      -0.005    -0.004     0.013       0.027
 425      -0.003     0.002     0.007       0.763
 426       0.011     0.006     0.043      -0.100
 427      -0.005     0.005     0.012       0.903
 428       0.006     0.004     0.018      -0.109
 429       0.002    -0.001    -0.003       0.972
 430      -0.003     0.000     0.004       0.754
 431      -0.000     0.000     0.003       0.293
 432      -0.009    -0.006     0.013       0.204
 433       0.006     0.000    -0.007       0.935
 434      -0.007    -0.006     0.009       0.090
 435      -0.003     0.002     0.006       0.760
 436      -0.002     0.002     0.004       0.894
 437       0.001    -0.000    -0.002       0.986
 438      -0.007    -0.007     0.008       0.041
 439      -0.003    -0.001     0.005       0.471
 440      -0.021    -0.015     0.035       0.186
 441      -0.011    -0.002     0.011       0.794
 442       0.018     0.016     0.060      -0.041
 443      -0.006    -0.000    -0.013      -0.422
 444       0.012     0.011     0.028      -0.053
 445      -0.003    -0.001     0.003       0.480
 446       0.012    -0.010    -0.013       1.608
 447       0.006     0.000     0.015      -0.371
 448      -0.634    -0.558    -0.758      -0.100
 449       0.065     0.063     0.159      -0.011
 450       1.754     1.727     2.507      -0.011
 451       0.021     0.013     0.044      -0.180
 452       0.003     0.001     0.023      -0.081
 453      -0.003     0.003     0.009       0.673
 454      -0.010    -0.007     0.015       0.215
 455       0.010     0.004     0.020      -0.292
 456       0.072     0.070     0.165      -0.012
 457       1.708     1.680     2.442      -0.012
 458       0.024     0.017     0.048      -0.152
 459       0.004     0.002     0.024      -0.078
 460      -0.003     0.003     0.009       0.669
 461      -0.007    -0.006     0.007       0.061
 462      -0.003    -0.001     0.005       0.448
 463      -0.013    -0.007     0.042       0.149
 464      -0.011    -0.002     0.011       0.771
 465       0.018     0.015     0.059      -0.041
 466      -0.007    -0.001    -0.014      -0.398
 467       0.010     0.009     0.025      -0.065
 468      -0.002    -0.001     0.003       0.468
 469      -0.003     0.000     0.004       0.741
 470      -0.001     0.000     0.003       0.320
 471      -0.008    -0.006     0.013       0.203
 472       0.006     0.000    -0.007       0.943
 473      -0.008    -0.007     0.009       0.100
 474      -0.003     0.002     0.006       0.780
 475      -0.003     0.001     0.004       1.047
 476       0.001    -0.000    -0.002       0.955
 477       0.001     0.001    -0.002       0.111
 478      -0.002     0.002     0.002       1.757
 479      -0.005    -0.001     0.008       0.448
 480      -0.006    -0.003     0.008       0.397
 481       0.007    -0.003    -0.007       1.436
 482      -0.006    -0.002     0.007       0.485
 483       0.002    -0.001     0.003      -1.175
 484       0.001     0.001    -0.002       0.161
 485      -0.002    -0.001     0.003       0.348
 486      -0.003    -0.001     0.004       0.341
 487      -0.007    -0.003     0.012       0.375
 488       0.006     0.001     0.024      -0.205
 489       0.022     0.017     0.039      -0.113
 490      -0.008    -0.003     0.011       0.441
 491      -0.003    -0.001     0.004       0.424
 492      -0.002    -0.001     0.003       0.274
 493      -0.004    -0.001     0.008       0.410
 494      -0.003    -0.001     0.011       0.170
 495      -0.048     0.001    -0.054      -0.899
 496       0.050     0.026     0.097      -0.245
 497       0.048     0.032     0.095      -0.170
 498      -0.024     0.005    -0.041      -0.718
 499       0.002     0.000     0.018      -0.081
 500      -0.004    -0.001     0.007       0.510
 501      -0.007     0.001     0.009       0.899
 502      -0.009    -0.005     0.012       0.376
 503      -0.057     0.020    -0.069      -1.118
 504       2.287     2.271     3.181      -0.005
 505       2.148     2.128     3.052      -0.006
 506       0.052    -0.003     0.102      -0.540
 507       0.018     0.014     0.048      -0.082
 508       0.014     0.004     0.025      -0.384
 509      -0.004    -0.001     0.007       0.423
 510      -0.004    -0.002     0.011       0.175
 511       0.023    -0.022    -0.028       1.602
 512       0.049     0.026     0.097      -0.240
 513       0.048     0.032     0.096      -0.164
 514      -0.024     0.005    -0.041      -0.705
 515       0.002     0.000     0.018      -0.075
 516      -0.004    -0.001     0.007       0.501
 517      -0.002    -0.001     0.003       0.357
 518      -0.003    -0.001     0.004       0.363
 519      -0.007    -0.002     0.012       0.359
 520       0.006     0.001     0.023      -0.217
 521       0.021     0.017     0.038      -0.112
 522      -0.008    -0.003     0.011       0.437
 523      -0.003    -0.001     0.004       0.434
 524      -0.002    -0.001     0.003       0.284
 525       0.002     0.000    -0.002       0.823
 526      -0.002     0.000     0.002       1.072
 527      -0.002    -0.001     0.005       0.247
 528       0.002     0.001     0.009      -0.098
 529      -0.004     0.002     0.015       0.336
 530      -0.006    -0.000     0.014       0.414
 531      -0.004    -0.002     0.005       0.217
 532      -0.003    -0.001     0.005       0.254
 533      -0.001    -0.001     0.006       0.136
 534      -0.002    -0.001     0.005       0.199
 535      -0.006    -0.004     0.008       0.326
 536       0.007     0.003     0.023      -0.179
 537       0.078     0.070     0.125      -0.059
 538       0.024     0.016     0.064      -0.122
 539      -0.005    -0.004     0.012       0.094
 540      -0.006     0.005    -0.009      -1.182
 541       0.003     0.000     0.015      -0.203
 542      -0.004    -0.000     0.009       0.363
 543       0.014    -0.007    -0.015       1.405
 544      -0.010    -0.004     0.034       0.162
 545       0.400     0.333     0.532      -0.127
 546       1.826     1.798     2.591      -0.011
 547       0.085     0.081     0.167      -0.029
 548       0.012     0.006    -0.015       0.413
 549       0.003    -0.000     0.014      -0.202
 550      -0.004    -0.000     0.009       0.356
 551       0.013    -0.007    -0.014       1.386
 552       0.008     0.004     0.048      -0.091
 553       0.422     0.364     0.561      -0.103
 554       1.780     1.751     2.525      -0.011
 555       0.087     0.082     0.168      -0.027
 556       0.012     0.005    -0.014       0.455
 557      -0.001    -0.000     0.006       0.138
 558      -0.002    -0.001     0.005       0.205
 559      -0.005    -0.003     0.009       0.278
 560       0.007     0.003     0.023      -0.184
 561       0.079     0.071     0.125      -0.060
 562       0.023     0.015     0.062      -0.124
 563      -0.005    -0.004     0.012       0.097
 564      -0.006     0.005    -0.009      -1.159
 565       0.002     0.000    -0.002       0.807
 566      -0.002     0.000     0.002       1.110
 567      -0.002    -0.001     0.005       0.258
 568       0.001     0.000     0.009      -0.110
 569      -0.003     0.002     0.016       0.327
 570      -0.006    -0.001     0.013       0.435
 571      -0.004    -0.003     0.005       0.231
 572      -0.003    -0.001     0.005       0.260
 573       0.241     0.035    -0.399       0.517
 574      14.845    14.800    25.895      -0.002
 575      14.588    14.548    25.545      -0.002
 576      -0.594    -0.516    -0.717      -0.109
 ---------------------------------------------------------------------



--------------------------------------------------------------------------------------------------------


     LOOP+:  cpu time 1033.6112: real time 1036.6838
    4ORBIT:  cpu time    0.0000: real time    0.0000

 total amount of memory used by VASP MPI-rank0   238704. kBytes
=======================================================================

   base      :      30000. kBytes
   nonlr-proj:       9227. kBytes
   fftplans  :      15014. kBytes
   grid      :      46644. kBytes
   one-center:        294. kBytes
   wavefun   :     137525. kBytes
 
  
  
 General timing and accounting informations for this job:
 ========================================================
  
                  Total CPU time used (sec):     1061.924
                            User time (sec):     1059.306
                          System time (sec):        2.618
                         Elapsed time (sec):     1065.858
  
                   Maximum memory used (kb):      430924.
                   Average memory used (kb):          N/A
  
                          Minor page faults:       864660
                          Major page faults:            0
                 Voluntary context switches:        11610
