 vasp.6.2.0 18Jan21 (build Apr 30 2021 19:00:08) gamma-only                     
  
 executed on             LinuxIFC date 2022.12.30  16:25:08
 running on   24 total cores
 distrk:  each k-point on   24 cores,    1 groups
 distr:  one band on NCORE=   6 cores,    4 groups


--------------------------------------------------------------------------------------------------------


 INCAR:
   SYSTEM = Diamond
   PREC = Normal
   ISTART = 0
   ICHARG = 11
   ISPIN = 2
   MAGMOM = 572*0.0 1*2.0 2*2.0 1*3
   NPAR = 4
   NELECT = 2303
   LHYPERFINE = T
   LEFG = T
   ENCUT = 700
   NELM = 1000
   NELMIN = 4
   EDIFF = 1E-06
   LREAL = Auto
   ALGO = Normal
   EDIFFG = -1E-02
   NSW = 0
   IBRION = 2
   ISIF = 2
   ISYM = 2
   POTIM = 0.5
   ISMEAR = 0
   SIGMA = 0.05
   NEDOS = 1000
   LWAVE = F
   LCHARG = F
   LVHAR = F
   LELF = F

 POTCAR:    PAW_PBE C 08Apr2002                   
 POTCAR:    PAW_PBE H 15Jun2001                   
 POTCAR:    PAW_PBE C 08Apr2002                   
 POTCAR:    PAW_PBE N 08Apr2002                   
 POTCAR:    PAW_PBE C 08Apr2002                   
   VRHFIN =C: s2p2                                                                                  
   LEXCH  = PE                                                                                      
   EATOM  =   147.1560 eV,   10.8157 Ry                                                             
                                                                                                    
   TITEL  = PAW_PBE C 08Apr2002                                                                     
   LULTRA =        F    use ultrasoft PP ?                                                          
   IUNSCR =        1    unscreen: 0-lin 1-nonlin 2-no                                               
   RPACOR =    1.200    partial core radius                                                         
   POMASS =   12.011; ZVAL   =    4.000    mass and valenz                                          
   RCORE  =    1.500    outmost cutoff radius                                                       
   RWIGS  =    1.630; RWIGS  =    0.863    wigner-seitz radius (au A)                               
   ENMAX  =  400.000; ENMIN  =  300.000 eV                                                          
   ICORE  =        2    local potential                                                             
   LCOR   =        T    correct aug charges                                                         
   LPAW   =        T    paw PP                                                                      
   EAUG   =  644.873                                                                                
   DEXC   =    0.000                                                                                
   RMAX   =    1.529    core radius for proj-oper                                                   
   RAUG   =    1.300    factor for augmentation sphere                                              
   RDEP   =    1.501    radius for radial grids                                                     
   RDEPT  =    1.300    core radius for aug-charge                                                  
                                                                                                    
   Atomic configuration                                                                             
    4 entries                                                                                       
     n  l   j            E        occ.                                                              
     1  0  0.50      -273.3789   2.0000                                                             
     2  0  0.50       -13.7508   2.0000                                                             
     2  1  0.50        -5.2854   2.0000                                                             
     3  2  1.50        -5.4423   0.0000                                                             
   Description                                                                                      
     l       E           TYP  RCUT    TYP  RCUT                                                     
     0    -13.7508458     23  1.200                                                                 
     0     -8.2022199     23  1.200                                                                 
     1     -5.2854383     23  1.500                                                                 
     1     34.0145650     23  1.500                                                                 
     2     -5.4423304      7  1.500                                                                 
  local pseudopotential read in
  partial core-charges read in
  partial kinetic energy density read in
  atomic valenz-charges read in
  non local Contribution for L=           0  read in
    real space projection operators read in
  non local Contribution for L=           0  read in
    real space projection operators read in
  non local Contribution for L=           1  read in
    real space projection operators read in
  non local Contribution for L=           1  read in
    real space projection operators read in
    PAW grid and wavefunctions read in
 
   number of l-projection  operators is LMAX  =           4
   number of lm-projection operators is LMMAX =           8
 
 POTCAR:    PAW_PBE H 15Jun2001                   
   VRHFIN =H: ultrasoft test                                                                        
   LEXCH  = PE                                                                                      
   EATOM  =    12.4884 eV,    0.9179 Ry                                                             
                                                                                                    
   TITEL  = PAW_PBE H 15Jun2001                                                                     
   LULTRA =        F    use ultrasoft PP ?                                                          
   IUNSCR =        0    unscreen: 0-lin 1-nonlin 2-no                                               
   RPACOR =    0.000    partial core radius                                                         
   POMASS =    1.000; ZVAL   =    1.000    mass and valenz                                          
   RCORE  =    1.100    outmost cutoff radius                                                       
   RWIGS  =    0.700; RWIGS  =    0.370    wigner-seitz radius (au A)                               
   ENMAX  =  250.000; ENMIN  =  200.000 eV                                                          
   RCLOC  =    0.701    cutoff for local pot                                                        
   LCOR   =        T    correct aug charges                                                         
   LPAW   =        T    paw PP                                                                      
   EAUG   =  400.000                                                                                
   RMAX   =    1.123    core radius for proj-oper                                                   
   RAUG   =    1.200    factor for augmentation sphere                                              
   RDEP   =    1.112    radius for radial grids                                                     
   RDEPT  =    0.926    core radius for aug-charge                                                  
                                                                                                    
   Atomic configuration                                                                             
    2 entries                                                                                       
     n  l   j            E        occ.                                                              
     1  0  0.50        -6.4927   1.0000                                                             
     2  1  0.50        -3.4015   0.0000                                                             
   Description                                                                                      
     l       E           TYP  RCUT    TYP  RCUT                                                     
     0     -6.4927494     23  1.100                                                                 
     0      6.8029130     23  1.100                                                                 
     1     -4.0817478     23  1.100                                                                 
  local pseudopotential read in
  atomic valenz-charges read in
  non local Contribution for L=           0  read in
    real space projection operators read in
  non local Contribution for L=           0  read in
    real space projection operators read in
  non local Contribution for L=           1  read in
    real space projection operators read in
    PAW grid and wavefunctions read in
 
   number of l-projection  operators is LMAX  =           3
   number of lm-projection operators is LMMAX =           5
 
 POTCAR:    PAW_PBE C 08Apr2002                   
   VRHFIN =C: s2p2                                                                                  
   LEXCH  = PE                                                                                      
   EATOM  =   147.1560 eV,   10.8157 Ry                                                             
                                                                                                    
   TITEL  = PAW_PBE C 08Apr2002                                                                     
   LULTRA =        F    use ultrasoft PP ?                                                          
   IUNSCR =        1    unscreen: 0-lin 1-nonlin 2-no                                               
   RPACOR =    1.200    partial core radius                                                         
   POMASS =   12.011; ZVAL   =    4.000    mass and valenz                                          
   RCORE  =    1.500    outmost cutoff radius                                                       
   RWIGS  =    1.630; RWIGS  =    0.863    wigner-seitz radius (au A)                               
   ENMAX  =  400.000; ENMIN  =  300.000 eV                                                          
   ICORE  =        2    local potential                                                             
   LCOR   =        T    correct aug charges                                                         
   LPAW   =        T    paw PP                                                                      
   EAUG   =  644.873                                                                                
   DEXC   =    0.000                                                                                
   RMAX   =    1.529    core radius for proj-oper                                                   
   RAUG   =    1.300    factor for augmentation sphere                                              
   RDEP   =    1.501    radius for radial grids                                                     
   RDEPT  =    1.300    core radius for aug-charge                                                  
                                                                                                    
   Atomic configuration                                                                             
    4 entries                                                                                       
     n  l   j            E        occ.                                                              
     1  0  0.50      -273.3789   2.0000                                                             
     2  0  0.50       -13.7508   2.0000                                                             
     2  1  0.50        -5.2854   2.0000                                                             
     3  2  1.50        -5.4423   0.0000                                                             
   Description                                                                                      
     l       E           TYP  RCUT    TYP  RCUT                                                     
     0    -13.7508458     23  1.200                                                                 
     0     -8.2022199     23  1.200                                                                 
     1     -5.2854383     23  1.500                                                                 
     1     34.0145650     23  1.500                                                                 
     2     -5.4423304      7  1.500                                                                 
  local pseudopotential read in
  partial core-charges read in
  partial kinetic energy density read in
  atomic valenz-charges read in
  non local Contribution for L=           0  read in
    real space projection operators read in
  non local Contribution for L=           0  read in
    real space projection operators read in
  non local Contribution for L=           1  read in
    real space projection operators read in
  non local Contribution for L=           1  read in
    real space projection operators read in
    PAW grid and wavefunctions read in
 
   number of l-projection  operators is LMAX  =           4
   number of lm-projection operators is LMMAX =           8
 
 POTCAR:    PAW_PBE N 08Apr2002                   
   VRHFIN =N: s2p3                                                                                  
   LEXCH  = PE                                                                                      
   EATOM  =   264.5486 eV,   19.4438 Ry                                                             
                                                                                                    
   TITEL  = PAW_PBE N 08Apr2002                                                                     
   LULTRA =        F    use ultrasoft PP ?                                                          
   IUNSCR =        1    unscreen: 0-lin 1-nonlin 2-no                                               
   RPACOR =    1.200    partial core radius                                                         
   POMASS =   14.001; ZVAL   =    5.000    mass and valenz                                          
   RCORE  =    1.500    outmost cutoff radius                                                       
   RWIGS  =    1.400; RWIGS  =    0.741    wigner-seitz radius (au A)                               
   ENMAX  =  400.000; ENMIN  =  300.000 eV                                                          
   ICORE  =        2    local potential                                                             
   LCOR   =        T    correct aug charges                                                         
   LPAW   =        T    paw PP                                                                      
   EAUG   =  627.112                                                                                
   DEXC   =    0.000                                                                                
   RMAX   =    1.529    core radius for proj-oper                                                   
   RAUG   =    1.300    factor for augmentation sphere                                              
   RDEP   =    1.514    radius for radial grids                                                     
   RDEPT  =    1.338    core radius for aug-charge                                                  
                                                                                                    
   Atomic configuration                                                                             
    4 entries                                                                                       
     n  l   j            E        occ.                                                              
     1  0  0.50      -384.7179   2.0000                                                             
     2  0  0.50       -18.5828   2.0000                                                             
     2  1  0.50        -7.0898   3.0000                                                             
     3  2  1.50        -6.8029   0.0000                                                             
   Description                                                                                      
     l       E           TYP  RCUT    TYP  RCUT                                                     
     0    -18.5828119     23  1.200                                                                 
     0    -13.5018863     23  1.200                                                                 
     1     -7.0897853     23  1.500                                                                 
     1      9.5240782     23  1.500                                                                 
     2     -6.8029130      7  1.500                                                                 
  local pseudopotential read in
  partial core-charges read in
  partial kinetic energy density read in
  atomic valenz-charges read in
  non local Contribution for L=           0  read in
    real space projection operators read in
  non local Contribution for L=           0  read in
    real space projection operators read in
  non local Contribution for L=           1  read in
    real space projection operators read in
  non local Contribution for L=           1  read in
    real space projection operators read in
    PAW grid and wavefunctions read in
 
   number of l-projection  operators is LMAX  =           4
   number of lm-projection operators is LMMAX =           8
 
 Optimization of the real space projectors (new method)

 maximal supplied QI-value         = 25.13
 optimisation between [QCUT,QGAM] = [ 13.32, 26.89] = [ 49.69,202.52] Ry 
 Optimized for a Real-space Cutoff    1.01 Angstroem

   l    n(q)    QCUT    max X(q) W(low)/X(q) W(high)/X(q)  e(spline) 
   0      8    13.321   115.676    0.29E-03    0.42E-03    0.11E-06
   0      8    13.321    87.132    0.29E-03    0.42E-03    0.11E-06
   1      8    13.321     4.429    0.39E-03    0.33E-03    0.98E-07
   1      8    13.321     2.733    0.30E-03    0.26E-03    0.97E-07
 Optimization of the real space projectors (new method)

 maximal supplied QI-value         = 34.20
 optimisation between [QCUT,QGAM] = [ 13.34, 27.02] = [ 49.83,204.46] Ry 
 Optimized for a Real-space Cutoff    0.93 Angstroem

   l    n(q)    QCUT    max X(q) W(low)/X(q) W(high)/X(q)  e(spline) 
   0      7    13.340    19.460    0.47E-03    0.72E-04    0.17E-06
   0      7    13.340    12.209    0.45E-03    0.63E-04    0.16E-06
   1      7    13.340     4.655    0.21E-03    0.61E-03    0.12E-06
 Optimization of the real space projectors (new method)

 maximal supplied QI-value         = 25.13
 optimisation between [QCUT,QGAM] = [ 13.32, 26.89] = [ 49.69,202.52] Ry 
 Optimized for a Real-space Cutoff    1.01 Angstroem

   l    n(q)    QCUT    max X(q) W(low)/X(q) W(high)/X(q)  e(spline) 
   0      8    13.321   115.676    0.29E-03    0.42E-03    0.11E-06
   0      8    13.321    87.132    0.29E-03    0.42E-03    0.11E-06
   1      8    13.321     4.429    0.39E-03    0.33E-03    0.98E-07
   1      8    13.321     2.733    0.30E-03    0.26E-03    0.97E-07
 Optimization of the real space projectors (new method)

 maximal supplied QI-value         = 25.13
 optimisation between [QCUT,QGAM] = [ 13.32, 26.89] = [ 49.69,202.52] Ry 
 Optimized for a Real-space Cutoff    1.01 Angstroem

   l    n(q)    QCUT    max X(q) W(low)/X(q) W(high)/X(q)  e(spline) 
   0      8    13.321    79.467    0.28E-03    0.38E-03    0.11E-06
   0      8    13.321    66.151    0.27E-03    0.38E-03    0.11E-06
   1      8    13.321    23.070    0.40E-03    0.78E-03    0.29E-06
   1      8    13.321    16.668    0.40E-03    0.79E-03    0.30E-06
  PAW_PBE C 08Apr2002                   :
 energy of atom  1       EATOM= -147.1560
 kinetic energy error for atom=    0.0032 (will be added to EATOM!!)
  PAW_PBE H 15Jun2001                   :
 energy of atom  2       EATOM=  -12.4884
 kinetic energy error for atom=    0.0002 (will be added to EATOM!!)
  PAW_PBE C 08Apr2002                   :
 energy of atom  3       EATOM= -147.1560
 kinetic energy error for atom=    0.0032 (will be added to EATOM!!)
  PAW_PBE N 08Apr2002                   :
 energy of atom  4       EATOM= -264.5486
 kinetic energy error for atom=    0.0061 (will be added to EATOM!!)
 
 
 POSCAR: Autosave
  positions in direct lattice
  velocities in cartesian coordinates
 exchange correlation table for  LEXCH =        8
   RHO(1)=    0.500       N(1)  =     2000
   RHO(2)=  100.500       N(2)  =     4000
 


--------------------------------------------------------------------------------------------------------


 ion  position               nearest neighbor table
   1  1.000  1.000  1.000- 288 1.55 384 1.55 476 1.55 437 1.55
   2  1.000  1.000  0.500- 475 1.55 289 1.55 383 1.55 436 1.55
   3  1.000  0.250  1.000- 290 1.55 470 1.55 431 1.55 386 1.55
   4  1.000  0.250  0.500- 469 1.55 291 1.55 385 1.55 430 1.55
   5  1.000  0.500  1.000- 292 1.55 433 1.55 472 1.55 388 1.55
   6  1.000  0.500  0.500- 432 1.54 471 1.54 293 1.55 387 1.55
   7  0.000  0.750  1.000- 294 1.55 390 1.55 435 1.55 474 1.55
   8  0.000  0.750  0.500- 473 1.55 295 1.55 389 1.55 434 1.55
   9  0.167  1.000  1.000- 296 1.55 437 1.55 392 1.55 445 1.55
  10  0.167  1.000  0.500- 391 1.55 436 1.55 297 1.55 444 1.55
  11  0.167  0.250  1.000- 298 1.55 431 1.55 439 1.55 394 1.55
  12  0.166  0.250  0.500- 430 1.54 393 1.55 299 1.55 438 1.55
  13  0.167  0.500  0.000- 300 1.55 441 1.55 433 1.55 396 1.55
  14  0.166  0.500  0.500- 440 1.54 432 1.54 301 1.55 395 1.55
  15  0.167  0.750  0.000- 435 1.55 302 1.55 398 1.55 443 1.55
  16  0.167  0.750  0.500- 303 1.55 434 1.55 397 1.55 442 1.55
  17  0.333  0.000  1.000- 304 1.55 400 1.55 453 1.55 445 1.55
  18  0.333  1.000  0.500- 305 1.55 399 1.55 452 1.55 444 1.55
  19  0.333  0.250  0.000- 306 1.55 402 1.55 447 1.55 439 1.55
  20  0.333  0.250  0.500- 401 1.54 438 1.54 307 1.55 446 1.55
  21  0.333  0.500  0.000- 308 1.54 449 1.55 404 1.55 441 1.55
  22  0.332  0.499  0.499- 448 1.52 440 1.54 403 1.55 309 1.55
  23  0.333  0.750  0.000- 310 1.55 451 1.55 406 1.55 443 1.55
  24  0.333  0.750  0.500- 450 1.54 311 1.55 405 1.55 442 1.55
  25  0.500  0.000  1.000- 408 1.55 312 1.55 460 1.55 453 1.55
  26  0.500  0.000  0.500- 313 1.55 407 1.55 459 1.55 452 1.55
  27  0.500  0.250  0.000- 410 1.54 314 1.54 455 1.55 447 1.55
  28  0.500  0.251  0.500- 315 1.55 454 1.55 446 1.55 409 1.55
  29  0.500  0.500  0.000- 316 1.54 411 1.55 456 1.55 449 1.55
  30  0.500  0.750  1.000- 317 1.54 413 1.55 458 1.55 451 1.55
  31  0.500  0.750  0.500- 318 1.55 412 1.55 450 1.55 457 1.55
  32  0.667  0.000  1.000- 319 1.55 460 1.55 415 1.55 468 1.55
  33  0.667  0.000  0.500- 320 1.55 414 1.55 459 1.55 467 1.55
  34  0.667  0.250  0.000- 321 1.55 455 1.55 417 1.55 462 1.55
  35  0.667  0.250  0.500- 416 1.54 322 1.55 461 1.55 454 1.55
  36  0.667  0.500  0.000- 323 1.54 456 1.55 464 1.55 419 1.55
  37  0.666  0.500  0.499- 575 1.49 418 1.55 324 1.55 463 1.55
  38  0.667  0.750  1.000- 325 1.55 421 1.55 458 1.55 466 1.55
  39  0.667  0.750  0.500- 457 1.54 420 1.54 326 1.55 465 1.55
  40  0.833  0.000  1.000- 327 1.55 468 1.55 423 1.55 476 1.55
  41  0.833  0.000  0.500- 467 1.55 422 1.55 328 1.55 475 1.55
  42  0.833  0.250  1.000- 470 1.55 329 1.55 462 1.55 425 1.55
  43  0.833  0.250  0.500- 330 1.55 461 1.55 469 1.55 424 1.55
  44  0.833  0.500  1.000- 331 1.55 472 1.55 464 1.55 427 1.55
  45  0.834  0.500  0.500- 463 1.54 471 1.54 332 1.55 426 1.55
  46  0.833  0.750  1.000- 333 1.55 429 1.55 474 1.55 466 1.55
  47  0.833  0.750  0.500- 465 1.54 334 1.55 473 1.55 428 1.55
  48  0.083  0.125  1.000- 335 1.55 384 1.55 431 1.55 392 1.55
  49  0.083  0.125  0.500- 383 1.55 430 1.55 336 1.55 391 1.55
  50  0.083  0.375  1.000- 386 1.55 337 1.55 394 1.55 433 1.55
  51  0.083  0.375  0.500- 385 1.54 393 1.55 338 1.55 432 1.55
  52  0.083  0.625  0.000- 396 1.55 339 1.55 388 1.55 435 1.55
  53  0.083  0.625  0.500- 340 1.55 434 1.55 387 1.55 395 1.55
  54  0.083  0.875  1.000- 437 1.55 341 1.55 390 1.55 398 1.55
  55  0.083  0.875  0.500- 389 1.55 342 1.55 436 1.55 397 1.55
  56  0.250  0.125  1.000- 343 1.55 439 1.55 392 1.55 400 1.55
  57  0.250  0.125  0.500- 438 1.54 391 1.55 344 1.55 399 1.55
  58  0.250  0.375  1.000- 345 1.54 394 1.55 402 1.55 441 1.55
  59  0.249  0.375  0.500- 393 1.54 346 1.55 440 1.55 401 1.55
  60  0.250  0.625  0.000- 404 1.54 347 1.54 443 1.55 396 1.55
  61  0.251  0.625  0.500- 348 1.55 442 1.55 395 1.55 403 1.55
  62  0.250  0.875  1.000- 349 1.55 445 1.55 406 1.55 398 1.55
  63  0.250  0.875  0.500- 405 1.55 350 1.55 444 1.55 397 1.55
  64  0.417  0.125  0.000- 447 1.55 351 1.55 408 1.55 400 1.55
  65  0.417  0.125  0.500- 352 1.55 446 1.55 407 1.55 399 1.55
  66  0.417  0.375  0.000- 353 1.54 449 1.55 410 1.55 402 1.55
  67  0.415  0.375  0.499- 448 1.52 401 1.54 409 1.55 354 1.55
  68  0.417  0.625  0.000- 355 1.54 411 1.55 451 1.55 404 1.55
  69  0.419  0.624  0.499- 574 1.51 356 1.55 403 1.55 450 1.57
  70  0.417  0.875  1.000- 453 1.55 357 1.55 413 1.55 406 1.55
  71  0.417  0.875  0.500- 358 1.55 452 1.55 412 1.55 405 1.55
  72  0.583  0.125  1.000- 455 1.55 408 1.55 359 1.55 415 1.55
  73  0.583  0.125  0.500- 360 1.55 407 1.55 454 1.55 414 1.55
  74  0.583  0.375  0.000- 361 1.54 456 1.55 410 1.55 417 1.55
  75  0.583  0.377  0.499- 575 1.51 362 1.55 409 1.55 416 1.57
  76  0.583  0.625  0.000- 363 1.54 411 1.55 458 1.55 419 1.55
  77  0.583  0.625  0.499- 574 1.49 418 1.55 364 1.55 457 1.55
  78  0.583  0.875  1.000- 460 1.55 365 1.55 413 1.55 421 1.55
  79  0.583  0.875  0.500- 459 1.55 366 1.55 412 1.55 420 1.55
  80  0.750  0.125  1.000- 367 1.55 415 1.55 462 1.55 423 1.55
  81  0.750  0.125  0.500- 461 1.55 368 1.55 414 1.55 422 1.55
  82  0.750  0.375  1.000- 369 1.54 425 1.54 464 1.55 417 1.55
  83  0.750  0.375  0.500- 370 1.55 424 1.55 416 1.55 463 1.55
  84  0.750  0.625  0.000- 371 1.54 419 1.54 466 1.55 427 1.55
  85  0.750  0.625  0.500- 418 1.54 372 1.55 426 1.55 465 1.55
  86  0.750  0.875  1.000- 373 1.55 468 1.55 421 1.55 429 1.55
  87  0.750  0.875  0.500- 420 1.54 467 1.55 374 1.55 428 1.55
  88  0.917  0.125  1.000- 375 1.55 423 1.55 470 1.55 384 1.55
  89  0.917  0.125  0.500- 422 1.55 376 1.55 469 1.55 383 1.55
  90  0.917  0.375  1.000- 386 1.55 377 1.55 425 1.55 472 1.55
  91  0.917  0.375  0.500- 385 1.55 378 1.55 424 1.55 471 1.55
  92  0.917  0.625  1.000- 388 1.55 379 1.55 474 1.55 427 1.55
  93  0.917  0.625  0.500- 426 1.54 473 1.55 380 1.55 387 1.55
  94  0.917  0.875  1.000- 381 1.55 476 1.55 390 1.55 429 1.55
  95  0.917  0.875  0.500- 428 1.55 475 1.55 382 1.55 389 1.55
  96  1.000  0.083  0.333- 565 1.55 383 1.55 477 1.55 525 1.55
  97  1.000  0.083  0.833- 384 1.55 566 1.55 478 1.55 526 1.55
  98  1.000  0.333  0.333- 567 1.55 385 1.55 527 1.55 479 1.55
  99  1.000  0.333  0.833- 386 1.55 568 1.55 528 1.55 480 1.55
 100  0.000  0.583  0.333- 529 1.55 569 1.55 387 1.55 481 1.55
 101  1.000  0.583  0.833- 388 1.55 482 1.55 530 1.55 570 1.55
 102  0.000  0.833  0.333- 483 1.55 571 1.55 389 1.55 531 1.55
 103  0.000  0.833  0.833- 390 1.55 484 1.55 572 1.55 532 1.55
 104  0.167  0.083  0.333- 525 1.55 485 1.55 391 1.55 533 1.55
 105  0.167  0.083  0.833- 392 1.55 486 1.55 526 1.55 534 1.55
 106  0.166  0.333  0.333- 527 1.55 535 1.55 393 1.55 487 1.55
 107  0.167  0.333  0.833- 394 1.55 528 1.55 536 1.55 488 1.55
 108  0.167  0.583  0.333- 537 1.55 395 1.55 489 1.55 529 1.55
 109  0.167  0.583  0.833- 538 1.55 490 1.55 530 1.55 396 1.55
 110  0.167  0.833  0.333- 397 1.55 531 1.55 539 1.55 491 1.55
 111  0.167  0.833  0.833- 398 1.55 532 1.55 492 1.55 540 1.55
 112  0.333  0.083  0.333- 493 1.55 399 1.55 541 1.55 533 1.55
 113  0.333  0.083  0.833- 400 1.55 542 1.55 494 1.55 534 1.55
 114  0.333  0.333  0.333- 535 1.54 543 1.55 495 1.55 401 1.55
 115  0.333  0.333  0.833- 496 1.55 402 1.55 544 1.55 536 1.55
 116  0.334  0.583  0.334- 545 1.54 403 1.54 497 1.55 537 1.55
 117  0.333  0.583  0.834- 546 1.54 404 1.54 498 1.55 538 1.55
 118  0.333  0.833  0.333- 547 1.55 499 1.55 405 1.55 539 1.55
 119  0.333  0.833  0.833- 406 1.55 548 1.55 540 1.55 500 1.55
 120  0.500  0.083  0.333- 501 1.55 407 1.55 549 1.55 541 1.55
 121  0.500  0.083  0.833- 408 1.55 550 1.55 542 1.55 502 1.55
 122  0.500  0.334  0.333- 503 1.54 409 1.54 551 1.55 543 1.55
 123  0.500  0.333  0.834- 504 1.54 410 1.54 552 1.55 544 1.55
 124  0.501  0.584  0.334- 574 1.49 553 1.55 505 1.55 545 1.56
 125  0.500  0.583  0.834- 411 1.54 506 1.55 554 1.55 546 1.55
 126  0.500  0.833  0.333- 412 1.55 507 1.55 555 1.55 547 1.55
 127  0.500  0.833  0.833- 413 1.55 508 1.55 556 1.55 548 1.55
 128  0.667  0.083  0.333- 509 1.55 414 1.55 549 1.55 557 1.55
 129  0.667  0.083  0.833- 550 1.55 415 1.55 558 1.55 510 1.55
 130  0.667  0.334  0.333- 551 1.55 559 1.55 511 1.55 416 1.55
 131  0.667  0.333  0.833- 512 1.55 552 1.55 417 1.55 560 1.55
 132  0.667  0.583  0.333- 418 1.54 553 1.54 561 1.55 513 1.55
 133  0.667  0.583  0.834- 554 1.54 419 1.54 514 1.55 562 1.55
 134  0.667  0.833  0.333- 515 1.55 563 1.55 555 1.55 420 1.55
 135  0.667  0.833  0.833- 421 1.55 556 1.55 564 1.55 516 1.55
 136  0.833  0.083  0.333- 557 1.55 517 1.55 422 1.55 565 1.55
 137  0.833  0.083  0.833- 423 1.55 558 1.55 566 1.55 518 1.55
 138  0.833  0.333  0.333- 559 1.55 424 1.55 567 1.55 519 1.55
 139  0.833  0.333  0.833- 425 1.55 568 1.55 560 1.55 520 1.55
 140  0.833  0.583  0.333- 561 1.55 569 1.55 426 1.55 521 1.55
 141  0.833  0.583  0.833- 570 1.55 522 1.55 427 1.55 562 1.55
 142  0.833  0.833  0.333- 563 1.55 523 1.55 428 1.55 571 1.55
 143  0.833  0.833  0.833- 429 1.55 524 1.55 572 1.55 564 1.55
 144  0.083  0.208  0.333- 477 1.55 485 1.55 430 1.55 527 1.55
 145  0.083  0.208  0.833- 431 1.55 478 1.55 486 1.55 528 1.55
 146  0.083  0.458  0.333- 479 1.55 487 1.55 529 1.55 432 1.55
 147  0.083  0.458  0.833- 433 1.55 488 1.55 530 1.55 480 1.55
 148  0.083  0.708  0.333- 489 1.55 434 1.55 481 1.55 531 1.55
 149  0.083  0.708  0.833- 435 1.55 532 1.55 482 1.55 490 1.55
 150  0.083  0.958  0.333- 525 1.55 483 1.55 436 1.55 491 1.55
 151  0.083  0.958  0.833- 437 1.55 526 1.55 484 1.55 492 1.55
 152  0.250  0.208  0.333- 485 1.55 535 1.55 493 1.55 438 1.55
 153  0.250  0.208  0.833- 439 1.55 536 1.55 486 1.55 494 1.55
 154  0.250  0.458  0.333- 487 1.54 537 1.55 495 1.55 440 1.55
 155  0.250  0.458  0.833- 496 1.55 441 1.55 538 1.55 488 1.55
 156  0.250  0.708  0.333- 442 1.55 497 1.55 489 1.55 539 1.55
 157  0.250  0.708  0.833- 540 1.55 490 1.55 443 1.55 498 1.55
 158  0.250  0.958  0.333- 444 1.55 533 1.55 499 1.55 491 1.55
 159  0.250  0.958  0.833- 445 1.55 492 1.55 534 1.55 500 1.55
 160  0.417  0.208  0.333- 543 1.55 446 1.55 501 1.55 493 1.55
 161  0.417  0.208  0.833- 544 1.55 494 1.55 502 1.55 447 1.55
 162  0.415  0.458  0.333- 448 1.52 495 1.54 503 1.55 545 1.55
 163  0.416  0.458  0.834- 449 1.54 496 1.55 546 1.55 504 1.55
 164  0.417  0.708  0.333- 497 1.55 547 1.55 450 1.55 505 1.55
 165  0.417  0.708  0.833- 506 1.55 498 1.55 451 1.55 548 1.55
 166  0.417  0.958  0.333- 452 1.55 541 1.55 499 1.55 507 1.55
 167  0.417  0.958  0.833- 453 1.55 500 1.55 542 1.55 508 1.55
 168  0.583  0.209  0.333- 454 1.55 551 1.55 509 1.55 501 1.55
 169  0.583  0.208  0.833- 510 1.55 502 1.55 455 1.55 552 1.55
 170  0.584  0.459  0.334- 575 1.49 553 1.55 511 1.55 503 1.56
 171  0.583  0.458  0.834- 456 1.54 512 1.55 554 1.55 504 1.55
 172  0.584  0.708  0.333- 555 1.55 513 1.55 457 1.55 505 1.55
 173  0.583  0.708  0.833- 458 1.55 514 1.55 506 1.55 556 1.55
 174  0.583  0.958  0.333- 459 1.55 549 1.55 515 1.55 507 1.55
 175  0.583  0.958  0.833- 460 1.55 516 1.55 550 1.55 508 1.55
 176  0.750  0.208  0.333- 509 1.55 517 1.55 559 1.55 461 1.55
 177  0.750  0.208  0.833- 462 1.55 510 1.55 518 1.55 560 1.55
 178  0.750  0.458  0.333- 519 1.55 561 1.55 463 1.55 511 1.55
 179  0.750  0.458  0.833- 464 1.55 512 1.55 562 1.55 520 1.55
 180  0.750  0.708  0.333- 513 1.55 465 1.55 563 1.55 521 1.55
 181  0.750  0.708  0.833- 564 1.55 522 1.55 466 1.55 514 1.55
 182  0.750  0.958  0.333- 557 1.55 515 1.55 467 1.55 523 1.55
 183  0.750  0.958  0.833- 468 1.55 516 1.55 524 1.55 558 1.55
 184  0.917  0.208  0.333- 517 1.55 469 1.55 567 1.55 477 1.55
 185  0.917  0.208  0.833- 470 1.55 518 1.55 478 1.55 568 1.55
 186  0.917  0.458  0.333- 479 1.55 519 1.55 569 1.55 471 1.55
 187  0.917  0.458  0.833- 472 1.55 480 1.55 570 1.55 520 1.55
 188  0.917  0.708  0.333- 521 1.55 473 1.55 571 1.55 481 1.55
 189  0.917  0.708  0.833- 474 1.55 572 1.55 482 1.55 522 1.55
 190  0.917  0.958  0.333- 523 1.55 565 1.55 475 1.55 483 1.55
 191  0.917  0.958  0.833- 476 1.55 524 1.55 566 1.55 484 1.55
 192  1.000  0.167  0.167- 375 1.55 477 1.55 335 1.55 290 1.55
 193  1.000  0.167  0.667- 478 1.55 376 1.55 291 1.55 336 1.55
 194  1.000  0.417  0.167- 337 1.55 377 1.55 479 1.55 292 1.55
 195  1.000  0.417  0.667- 480 1.55 338 1.55 293 1.55 378 1.55
 196  0.000  0.667  0.167- 339 1.55 379 1.55 481 1.55 294 1.55
 197  0.000  0.667  0.667- 482 1.55 295 1.55 380 1.55 340 1.55
 198  0.000  0.917  0.167- 381 1.55 288 1.55 483 1.55 341 1.55
 199  0.000  0.917  0.667- 484 1.55 289 1.55 382 1.55 342 1.55
 200  0.167  0.167  0.167- 335 1.55 485 1.55 298 1.55 343 1.55
 201  0.167  0.167  0.667- 486 1.55 299 1.55 344 1.55 336 1.55
 202  0.166  0.417  0.167- 337 1.55 487 1.55 300 1.55 345 1.55
 203  0.167  0.417  0.667- 346 1.55 301 1.55 488 1.55 338 1.55
 204  0.167  0.667  0.167- 347 1.55 489 1.55 302 1.55 339 1.55
 205  0.167  0.666  0.667- 490 1.55 303 1.55 340 1.55 348 1.55
 206  0.167  0.917  0.167- 296 1.55 491 1.55 349 1.55 341 1.55
 207  0.167  0.917  0.667- 492 1.55 342 1.55 297 1.55 350 1.55
 208  0.333  0.167  0.167- 493 1.55 306 1.55 343 1.55 351 1.55
 209  0.333  0.167  0.667- 494 1.55 352 1.55 307 1.55 344 1.55
 210  0.333  0.416  0.166- 495 1.54 345 1.54 353 1.55 308 1.55
 211  0.333  0.417  0.667- 309 1.54 354 1.54 346 1.55 496 1.55
 212  0.333  0.667  0.167- 497 1.55 355 1.55 347 1.55 310 1.55
 213  0.334  0.666  0.666- 348 1.54 498 1.55 311 1.55 356 1.56
 214  0.333  0.917  0.167- 304 1.55 357 1.55 499 1.55 349 1.55
 215  0.333  0.917  0.667- 500 1.55 350 1.55 358 1.55 305 1.55
 216  0.500  0.167  0.167- 314 1.55 501 1.55 359 1.55 351 1.55
 217  0.500  0.167  0.667- 502 1.55 360 1.55 352 1.55 315 1.55
 218  0.500  0.417  0.167- 316 1.55 503 1.55 361 1.55 353 1.55
 219  0.500  0.418  0.669- 576 1.48 504 1.54 362 1.56 354 1.56
 220  0.500  0.667  0.166- 505 1.54 317 1.54 363 1.55 355 1.55
 221  0.500  0.666  0.666- 364 1.54 356 1.54 318 1.55 506 1.55
 222  0.500  0.917  0.167- 312 1.55 507 1.55 365 1.55 357 1.55
 223  0.500  0.917  0.667- 508 1.55 366 1.55 358 1.55 313 1.55
 224  0.667  0.167  0.167- 321 1.55 509 1.55 359 1.55 367 1.55
 225  0.666  0.167  0.667- 510 1.55 360 1.55 368 1.55 322 1.55
 226  0.667  0.417  0.166- 511 1.54 369 1.54 323 1.55 361 1.55
 227  0.666  0.417  0.666- 324 1.54 362 1.54 370 1.55 512 1.55
 228  0.667  0.667  0.167- 513 1.55 325 1.55 371 1.55 363 1.55
 229  0.666  0.666  0.666- 372 1.54 514 1.55 326 1.55 364 1.56
 230  0.667  0.917  0.167- 319 1.55 515 1.55 365 1.55 373 1.55
 231  0.667  0.917  0.667- 516 1.55 366 1.55 374 1.55 320 1.55
 232  0.833  0.167  0.167- 367 1.55 329 1.55 517 1.55 375 1.55
 233  0.833  0.167  0.667- 368 1.55 518 1.55 330 1.55 376 1.55
 234  0.833  0.417  0.167- 377 1.55 519 1.55 331 1.55 369 1.55
 235  0.833  0.417  0.667- 332 1.55 370 1.55 520 1.55 378 1.55
 236  0.833  0.667  0.167- 371 1.55 521 1.55 333 1.55 379 1.55
 237  0.833  0.667  0.667- 522 1.55 334 1.55 380 1.55 372 1.55
 238  0.833  0.917  0.167- 327 1.55 373 1.55 523 1.55 381 1.55
 239  0.833  0.917  0.667- 524 1.55 374 1.55 382 1.55 328 1.55
 240  0.083  0.042  0.167- 335 1.55 288 1.55 525 1.55 296 1.55
 241  0.083  0.042  0.667- 526 1.55 336 1.55 289 1.55 297 1.55
 242  0.083  0.292  0.167- 290 1.55 298 1.55 527 1.55 337 1.55
 243  0.083  0.292  0.667- 528 1.55 291 1.55 299 1.55 338 1.55
 244  0.083  0.542  0.167- 300 1.55 529 1.55 292 1.55 339 1.55
 245  0.083  0.542  0.667- 530 1.55 340 1.55 301 1.55 293 1.55
 246  0.083  0.792  0.167- 302 1.55 341 1.55 294 1.55 531 1.55
 247  0.083  0.792  0.667- 532 1.55 342 1.55 295 1.55 303 1.55
 248  0.250  0.042  0.167- 343 1.55 533 1.55 296 1.55 304 1.55
 249  0.250  0.042  0.667- 534 1.55 305 1.55 344 1.55 297 1.55
 250  0.250  0.292  0.167- 298 1.55 535 1.55 306 1.55 345 1.55
 251  0.250  0.292  0.667- 346 1.55 307 1.55 536 1.55 299 1.55
 252  0.250  0.542  0.167- 537 1.55 308 1.55 347 1.55 300 1.55
 253  0.251  0.542  0.667- 348 1.54 538 1.55 301 1.55 309 1.55
 254  0.250  0.792  0.167- 310 1.55 539 1.55 302 1.55 349 1.55
 255  0.250  0.791  0.667- 540 1.55 303 1.55 350 1.55 311 1.55
 256  0.417  0.042  0.167- 351 1.55 541 1.55 304 1.55 312 1.55
 257  0.417  0.042  0.667- 542 1.55 313 1.55 305 1.55 352 1.55
 258  0.417  0.292  0.167- 543 1.55 353 1.55 306 1.55 314 1.55
 259  0.417  0.292  0.667- 315 1.55 544 1.55 307 1.55 354 1.55
 260  0.417  0.542  0.167- 316 1.55 545 1.55 355 1.55 308 1.55
 261  0.418  0.541  0.669- 576 1.48 546 1.54 356 1.56 309 1.56
 262  0.417  0.792  0.167- 357 1.55 310 1.55 547 1.55 317 1.55
 263  0.417  0.791  0.667- 311 1.55 318 1.55 548 1.55 358 1.55
 264  0.583  0.042  0.167- 359 1.55 319 1.55 549 1.55 312 1.55
 265  0.583  0.042  0.667- 550 1.55 320 1.55 313 1.55 360 1.55
 266  0.583  0.292  0.167- 551 1.55 361 1.55 321 1.55 314 1.55
 267  0.583  0.293  0.666- 315 1.54 552 1.55 322 1.55 362 1.56
 268  0.583  0.542  0.167- 553 1.54 323 1.55 316 1.55 363 1.55
 269  0.581  0.541  0.668- 576 1.48 554 1.54 324 1.56 364 1.56
 270  0.583  0.792  0.167- 365 1.55 555 1.55 325 1.55 317 1.55
 271  0.583  0.792  0.667- 326 1.55 318 1.55 556 1.55 366 1.55
 272  0.750  0.042  0.167- 367 1.55 319 1.55 557 1.55 327 1.55
 273  0.750  0.042  0.667- 558 1.55 320 1.55 328 1.55 368 1.55
 274  0.750  0.292  0.167- 329 1.55 321 1.55 559 1.55 369 1.55
 275  0.750  0.292  0.667- 322 1.55 370 1.55 560 1.55 330 1.55
 276  0.750  0.542  0.167- 561 1.55 331 1.55 323 1.55 371 1.55
 277  0.749  0.542  0.666- 372 1.54 562 1.55 332 1.55 324 1.56
 278  0.750  0.792  0.167- 373 1.55 563 1.55 325 1.55 333 1.55
 279  0.750  0.791  0.667- 564 1.55 334 1.55 326 1.55 374 1.55
 280  0.917  0.042  0.167- 327 1.55 375 1.55 565 1.55 288 1.55
 281  0.917  0.042  0.667- 566 1.55 328 1.55 376 1.55 289 1.55
 282  0.917  0.292  0.167- 329 1.55 290 1.55 567 1.55 377 1.55
 283  0.917  0.292  0.667- 568 1.55 330 1.55 378 1.55 291 1.55
 284  0.917  0.542  0.167- 331 1.55 292 1.55 569 1.55 379 1.55
 285  0.916  0.542  0.667- 570 1.55 380 1.55 332 1.55 293 1.55
 286  0.917  0.792  0.167- 333 1.55 381 1.55 571 1.55 294 1.55
 287  0.917  0.792  0.667- 572 1.55 382 1.55 334 1.55 295 1.55
 288  1.000  1.000  0.125-   1 1.55 198 1.55 240 1.55 280 1.55
 289  1.000  1.000  0.625-   2 1.55 241 1.55 199 1.55 281 1.55
 290  1.000  0.250  0.125- 242 1.55   3 1.55 282 1.55 192 1.55
 291  1.000  0.250  0.625-   4 1.55 243 1.55 193 1.55 283 1.55
 292  1.000  0.500  0.125-   5 1.55 284 1.55 244 1.55 194 1.55
 293  1.000  0.500  0.625- 195 1.55   6 1.55 245 1.55 285 1.55
 294  0.000  0.750  0.125-   7 1.55 246 1.55 196 1.55 286 1.55
 295  0.000  0.750  0.625-   8 1.55 197 1.55 247 1.55 287 1.55
 296  0.167  1.000  0.125-   9 1.55 206 1.55 240 1.55 248 1.55
 297  0.167  1.000  0.625-  10 1.55 241 1.55 249 1.55 207 1.55
 298  0.167  0.250  0.125- 250 1.55  11 1.55 242 1.55 200 1.55
 299  0.167  0.250  0.625- 201 1.55  12 1.55 243 1.55 251 1.55
 300  0.167  0.500  0.125-  13 1.55 244 1.55 202 1.55 252 1.55
 301  0.167  0.500  0.625- 203 1.55  14 1.55 245 1.55 253 1.55
 302  0.167  0.750  0.125- 246 1.55  15 1.55 254 1.55 204 1.55
 303  0.167  0.750  0.625-  16 1.55 255 1.55 205 1.55 247 1.55
 304  0.333  1.000  0.125-  17 1.55 214 1.55 256 1.55 248 1.55
 305  0.333  1.000  0.625-  18 1.55 249 1.55 257 1.55 215 1.55
 306  0.333  0.250  0.125-  19 1.55 208 1.55 250 1.55 258 1.55
 307  0.333  0.250  0.625- 251 1.55  20 1.55 209 1.55 259 1.55
 308  0.333  0.500  0.125-  21 1.54 252 1.55 210 1.55 260 1.55
 309  0.334  0.499  0.625- 211 1.54  22 1.55 253 1.55 261 1.56
 310  0.333  0.750  0.125-  23 1.55 254 1.55 262 1.55 212 1.55
 311  0.334  0.750  0.625-  24 1.55 263 1.55 255 1.55 213 1.55
 312  0.500  0.000  0.125- 222 1.55  25 1.55 256 1.55 264 1.55
 313  0.500  0.000  0.625-  26 1.55 257 1.55 265 1.55 223 1.55
 314  0.500  0.250  0.125-  27 1.54 216 1.55 258 1.55 266 1.55
 315  0.500  0.250  0.625- 267 1.54 259 1.55  28 1.55 217 1.55
 316  0.500  0.500  0.125-  29 1.54 218 1.55 260 1.55 268 1.55
 317  0.500  0.750  0.125- 220 1.54  30 1.54 262 1.55 270 1.55
 318  0.500  0.750  0.625-  31 1.55 263 1.55 271 1.55 221 1.55
 319  0.667  0.000  0.125- 230 1.55  32 1.55 272 1.55 264 1.55
 320  0.667  0.000  0.625-  33 1.55 273 1.55 265 1.55 231 1.55
 321  0.667  0.250  0.125-  34 1.55 224 1.55 274 1.55 266 1.55
 322  0.666  0.250  0.625- 275 1.55  35 1.55 225 1.55 267 1.55
 323  0.667  0.500  0.125-  36 1.54 276 1.55 226 1.55 268 1.55
 324  0.665  0.500  0.624- 227 1.54  37 1.55 277 1.56 269 1.56
 325  0.667  0.750  0.125-  38 1.55 228 1.55 278 1.55 270 1.55
 326  0.666  0.750  0.625- 271 1.55  39 1.55 279 1.55 229 1.55
 327  0.833  0.000  0.125- 280 1.55  40 1.55 238 1.55 272 1.55
 328  0.833  0.000  0.625-  41 1.55 281 1.55 273 1.55 239 1.55
 329  0.833  0.250  0.125- 274 1.55 282 1.55  42 1.55 232 1.55
 330  0.833  0.250  0.625-  43 1.55 283 1.55 233 1.55 275 1.55
 331  0.833  0.500  0.125-  44 1.55 284 1.55 276 1.55 234 1.55
 332  0.833  0.500  0.625- 235 1.55  45 1.55 285 1.55 277 1.55
 333  0.833  0.750  0.125-  46 1.55 286 1.55 236 1.55 278 1.55
 334  0.833  0.750  0.625-  47 1.55 279 1.55 237 1.55 287 1.55
 335  0.083  0.125  0.125- 200 1.55  48 1.55 240 1.55 192 1.55
 336  0.083  0.125  0.625-  49 1.55 241 1.55 201 1.55 193 1.55
 337  0.083  0.375  0.125- 202 1.55 194 1.55  50 1.55 242 1.55
 338  0.083  0.375  0.625-  51 1.55 195 1.55 243 1.55 203 1.55
 339  0.083  0.625  0.125- 196 1.55  52 1.55 244 1.55 204 1.55
 340  0.083  0.625  0.625- 245 1.55  53 1.55 205 1.55 197 1.55
 341  0.083  0.875  0.125- 246 1.55  54 1.55 198 1.55 206 1.55
 342  0.083  0.875  0.625-  55 1.55 247 1.55 207 1.55 199 1.55
 343  0.250  0.125  0.125-  56 1.55 248 1.55 208 1.55 200 1.55
 344  0.250  0.125  0.625-  57 1.55 201 1.55 249 1.55 209 1.55
 345  0.250  0.375  0.125- 210 1.54  58 1.54 202 1.55 250 1.55
 346  0.250  0.375  0.625- 251 1.55 203 1.55  59 1.55 211 1.55
 347  0.250  0.625  0.125-  60 1.54 204 1.55 252 1.55 212 1.55
 348  0.250  0.625  0.625- 213 1.54 253 1.54  61 1.55 205 1.55
 349  0.250  0.875  0.125-  62 1.55 206 1.55 254 1.55 214 1.55
 350  0.250  0.875  0.625-  63 1.55 215 1.55 207 1.55 255 1.55
 351  0.417  0.125  0.125- 256 1.55  64 1.55 208 1.55 216 1.55
 352  0.417  0.125  0.625-  65 1.55 209 1.55 217 1.55 257 1.55
 353  0.417  0.375  0.125-  66 1.54 258 1.55 210 1.55 218 1.55
 354  0.417  0.376  0.625- 211 1.54  67 1.55 259 1.55 219 1.56
 355  0.417  0.625  0.125-  68 1.54 212 1.55 220 1.55 260 1.55
 356  0.418  0.624  0.625- 221 1.54  69 1.55 261 1.56 213 1.56
 357  0.417  0.875  0.125- 262 1.55  70 1.55 214 1.55 222 1.55
 358  0.417  0.875  0.625-  71 1.55 215 1.55 223 1.55 263 1.55
 359  0.583  0.125  0.125- 264 1.55  72 1.55 224 1.55 216 1.55
 360  0.583  0.125  0.625-  73 1.55 225 1.55 217 1.55 265 1.55
 361  0.583  0.375  0.125-  74 1.54 266 1.55 226 1.55 218 1.55
 362  0.583  0.377  0.625- 227 1.54  75 1.55 219 1.56 267 1.56
 363  0.583  0.625  0.125-  76 1.54 228 1.55 220 1.55 268 1.55
 364  0.582  0.624  0.624- 221 1.54  77 1.55 229 1.56 269 1.56
 365  0.583  0.875  0.125- 270 1.55  78 1.55 222 1.55 230 1.55
 366  0.583  0.875  0.625-  79 1.55 223 1.55 231 1.55 271 1.55
 367  0.750  0.125  0.125- 272 1.55 232 1.55  80 1.55 224 1.55
 368  0.750  0.125  0.625- 233 1.55  81 1.55 273 1.55 225 1.55
 369  0.750  0.375  0.125- 226 1.54  82 1.54 234 1.55 274 1.55
 370  0.750  0.375  0.625- 235 1.55  83 1.55 275 1.55 227 1.55
 371  0.750  0.625  0.125-  84 1.54 236 1.55 276 1.55 228 1.55
 372  0.750  0.625  0.625- 277 1.54 229 1.54  85 1.55 237 1.55
 373  0.750  0.875  0.125-  86 1.55 278 1.55 238 1.55 230 1.55
 374  0.750  0.875  0.625-  87 1.55 231 1.55 239 1.55 279 1.55
 375  0.917  0.125  0.125- 192 1.55  88 1.55 280 1.55 232 1.55
 376  0.917  0.125  0.625-  89 1.55 193 1.55 281 1.55 233 1.55
 377  0.917  0.375  0.125- 234 1.55 194 1.55  90 1.55 282 1.55
 378  0.917  0.375  0.625-  91 1.55 195 1.55 283 1.55 235 1.55
 379  0.917  0.625  0.125- 196 1.55  92 1.55 236 1.55 284 1.55
 380  0.917  0.625  0.625- 285 1.55  93 1.55 237 1.55 197 1.55
 381  0.917  0.875  0.125- 286 1.55 198 1.55  94 1.55 238 1.55
 382  0.917  0.875  0.625-  95 1.55 199 1.55 287 1.55 239 1.55
 383  1.000  0.083  0.458-  49 1.55   2 1.55  96 1.55  89 1.55
 384  1.000  0.083  0.958-  97 1.55  48 1.55   1 1.55  88 1.55
 385  1.000  0.333  0.458-  51 1.54  91 1.55   4 1.55  98 1.55
 386  1.000  0.333  0.958-  50 1.55  90 1.55  99 1.55   3 1.55
 387  0.000  0.583  0.458- 100 1.55  93 1.55  53 1.55   6 1.55
 388  1.000  0.583  0.958-  92 1.55 101 1.55  52 1.55   5 1.55
 389  0.000  0.833  0.458-  55 1.55   8 1.55 102 1.55  95 1.55
 390  0.000  0.833  0.958- 103 1.55   7 1.55  54 1.55  94 1.55
 391  0.167  0.083  0.458-  10 1.55  57 1.55 104 1.55  49 1.55
 392  0.167  0.083  0.958- 105 1.55   9 1.55  56 1.55  48 1.55
 393  0.166  0.333  0.458-  59 1.54  51 1.55  12 1.55 106 1.55
 394  0.167  0.333  0.958- 107 1.55  58 1.55  50 1.55  11 1.55
 395  0.167  0.583  0.458- 108 1.55  53 1.55  14 1.55  61 1.55
 396  0.167  0.583  0.958-  52 1.55  13 1.55 109 1.55  60 1.55
 397  0.167  0.833  0.458- 110 1.55  63 1.55  55 1.55  16 1.55
 398  0.167  0.833  0.958- 111 1.55  15 1.55  62 1.55  54 1.55
 399  0.333  0.083  0.458-  18 1.55 112 1.55  57 1.55  65 1.55
 400  0.333  0.083  0.958- 113 1.55  17 1.55  56 1.55  64 1.55
 401  0.333  0.332  0.458-  20 1.54  67 1.54  59 1.55 114 1.55
 402  0.333  0.333  0.958- 115 1.55  19 1.55  58 1.55  66 1.55
 403  0.334  0.583  0.458- 116 1.54  22 1.55  61 1.55  69 1.55
 404  0.333  0.583  0.959- 117 1.54  60 1.54  21 1.55  68 1.55
 405  0.333  0.833  0.458-  63 1.55  24 1.55 118 1.55  71 1.55
 406  0.333  0.833  0.958- 119 1.55  62 1.55  23 1.55  70 1.55
 407  0.500  0.083  0.458- 120 1.55  65 1.55  26 1.55  73 1.55
 408  0.500  0.083  0.958-  25 1.55 121 1.55  72 1.55  64 1.55
 409  0.500  0.334  0.458- 122 1.54  67 1.55  28 1.55  75 1.55
 410  0.500  0.333  0.959- 123 1.54  27 1.54  66 1.55  74 1.55
 411  0.500  0.583  0.959- 125 1.54  68 1.55  76 1.55  29 1.55
 412  0.500  0.833  0.458-  71 1.55 126 1.55  31 1.55  79 1.55
 413  0.500  0.833  0.958-  30 1.55 127 1.55  70 1.55  78 1.55
 414  0.667  0.083  0.458- 128 1.55  33 1.55  81 1.55  73 1.55
 415  0.667  0.083  0.958- 129 1.55  32 1.55  80 1.55  72 1.55
 416  0.667  0.333  0.458-  35 1.54  83 1.55 130 1.55  75 1.57
 417  0.667  0.333  0.958- 131 1.55  34 1.55  82 1.55  74 1.55
 418  0.667  0.583  0.458-  85 1.54 132 1.54  37 1.55  77 1.55
 419  0.667  0.583  0.959- 133 1.54  84 1.54  36 1.55  76 1.55
 420  0.667  0.834  0.458-  39 1.54  87 1.54 134 1.55  79 1.55
 421  0.667  0.833  0.958- 135 1.55  38 1.55  86 1.55  78 1.55
 422  0.833  0.083  0.458-  41 1.55  89 1.55  81 1.55 136 1.55
 423  0.833  0.083  0.958- 137 1.55  88 1.55  40 1.55  80 1.55
 424  0.833  0.333  0.458-  91 1.55  43 1.55 138 1.55  83 1.55
 425  0.833  0.333  0.958-  82 1.54 139 1.55  90 1.55  42 1.55
 426  0.833  0.583  0.458-  93 1.54 140 1.55  45 1.55  85 1.55
 427  0.833  0.583  0.958-  44 1.55  84 1.55  92 1.55 141 1.55
 428  0.833  0.833  0.458-  95 1.55 142 1.55  47 1.55  87 1.55
 429  0.833  0.833  0.958- 143 1.55  46 1.55  94 1.55  86 1.55
 430  0.083  0.208  0.458-  12 1.54  49 1.55   4 1.55 144 1.55
 431  0.083  0.208  0.958-  11 1.55 145 1.55  48 1.55   3 1.55
 432  0.083  0.458  0.458-  14 1.54   6 1.54  51 1.55 146 1.55
 433  0.083  0.458  0.958- 147 1.55   5 1.55  13 1.55  50 1.55
 434  0.083  0.708  0.458-  16 1.55 148 1.55  53 1.55   8 1.55
 435  0.083  0.708  0.958-  15 1.55 149 1.55  52 1.55   7 1.55
 436  0.083  0.958  0.458-  10 1.55  55 1.55 150 1.55   2 1.55
 437  0.083  0.958  0.958- 151 1.55  54 1.55   9 1.55   1 1.55
 438  0.250  0.208  0.458-  20 1.54  57 1.54 152 1.55  12 1.55
 439  0.250  0.208  0.958- 153 1.55  56 1.55  11 1.55  19 1.55
 440  0.249  0.458  0.459-  14 1.54  22 1.54  59 1.55 154 1.55
 441  0.250  0.458  0.958- 155 1.55  13 1.55  58 1.55  21 1.55
 442  0.250  0.708  0.458- 156 1.55  24 1.55  16 1.55  61 1.55
 443  0.250  0.708  0.958-  15 1.55  23 1.55  60 1.55 157 1.55
 444  0.250  0.958  0.458-  63 1.55  10 1.55 158 1.55  18 1.55
 445  0.250  0.958  0.958- 159 1.55  62 1.55  17 1.55   9 1.55
 446  0.417  0.208  0.458- 160 1.55  65 1.55  20 1.55  28 1.55
 447  0.417  0.208  0.958-  64 1.55  19 1.55 161 1.55  27 1.55
 448  0.411  0.455  0.456- 573 1.09  67 1.52  22 1.52 162 1.52
 449  0.417  0.458  0.959- 163 1.54  21 1.55  66 1.55  29 1.55
 450  0.417  0.708  0.458-  24 1.54 164 1.55  31 1.55  69 1.57
 451  0.417  0.708  0.958-  23 1.55 165 1.55  30 1.55  68 1.55
 452  0.417  0.958  0.458-  18 1.55 166 1.55  71 1.55  26 1.55
 453  0.417  0.958  0.958-  70 1.55 167 1.55  17 1.55  25 1.55
 454  0.583  0.209  0.458- 168 1.55  35 1.55  73 1.55  28 1.55
 455  0.583  0.208  0.958-  34 1.55  72 1.55  27 1.55 169 1.55
 456  0.583  0.458  0.959- 171 1.54  74 1.55  36 1.55  29 1.55
 457  0.584  0.709  0.458-  39 1.54  31 1.55 172 1.55  77 1.55
 458  0.583  0.708  0.958- 173 1.55  38 1.55  76 1.55  30 1.55
 459  0.583  0.958  0.458-  79 1.55 174 1.55  33 1.55  26 1.55
 460  0.583  0.958  0.958-  78 1.55 175 1.55  32 1.55  25 1.55
 461  0.750  0.208  0.458-  81 1.55  35 1.55  43 1.55 176 1.55
 462  0.750  0.208  0.958- 177 1.55  42 1.55  80 1.55  34 1.55
 463  0.751  0.459  0.458-  45 1.54  83 1.55 178 1.55  37 1.55
 464  0.750  0.458  0.958- 179 1.55  44 1.55  82 1.55  36 1.55
 465  0.750  0.708  0.458-  47 1.54 180 1.55  39 1.55  85 1.55
 466  0.750  0.708  0.958-  84 1.55  46 1.55  38 1.55 181 1.55
 467  0.750  0.958  0.458-  87 1.55  41 1.55 182 1.55  33 1.55
 468  0.750  0.958  0.958- 183 1.55  86 1.55  40 1.55  32 1.55
 469  0.917  0.208  0.458-   4 1.55  89 1.55  43 1.55 184 1.55
 470  0.917  0.208  0.958-  42 1.55 185 1.55   3 1.55  88 1.55
 471  0.917  0.458  0.458-  45 1.54   6 1.54  91 1.55 186 1.55
 472  0.917  0.458  0.958- 187 1.55  44 1.55   5 1.55  90 1.55
 473  0.917  0.708  0.458-   8 1.55  93 1.55 188 1.55  47 1.55
 474  0.917  0.708  0.958- 189 1.55  92 1.55  46 1.55   7 1.55
 475  0.917  0.958  0.458-   2 1.55  95 1.55 190 1.55  41 1.55
 476  0.917  0.958  0.958- 191 1.55  94 1.55  40 1.55   1 1.55
 477  1.000  0.167  0.292- 144 1.55 192 1.55  96 1.55 184 1.55
 478  1.000  0.167  0.792- 193 1.55 145 1.55  97 1.55 185 1.55
 479  1.000  0.417  0.292- 146 1.55 186 1.55 194 1.55  98 1.55
 480  1.000  0.417  0.792- 195 1.55 187 1.55 147 1.55  99 1.55
 481  0.000  0.667  0.292- 196 1.55 148 1.55 188 1.55 100 1.55
 482  0.000  0.667  0.792- 197 1.55 101 1.55 149 1.55 189 1.55
 483  0.000  0.917  0.292- 102 1.55 150 1.55 198 1.55 190 1.55
 484  0.000  0.917  0.792- 199 1.55 103 1.55 151 1.55 191 1.55
 485  0.167  0.167  0.292- 152 1.55 104 1.55 200 1.55 144 1.55
 486  0.167  0.167  0.792- 201 1.55 105 1.55 153 1.55 145 1.55
 487  0.166  0.417  0.292- 154 1.54 146 1.55 202 1.55 106 1.55
 488  0.167  0.417  0.792- 147 1.55 203 1.55 107 1.55 155 1.55
 489  0.167  0.667  0.292- 204 1.55 148 1.55 108 1.55 156 1.55
 490  0.167  0.667  0.792- 205 1.55 109 1.55 157 1.55 149 1.55
 491  0.167  0.917  0.292- 206 1.55 158 1.55 150 1.55 110 1.55
 492  0.167  0.917  0.792- 207 1.55 111 1.55 159 1.55 151 1.55
 493  0.333  0.167  0.292- 112 1.55 208 1.55 152 1.55 160 1.55
 494  0.333  0.167  0.792- 209 1.55 161 1.55 113 1.55 153 1.55
 495  0.333  0.416  0.291- 210 1.54 162 1.54 154 1.55 114 1.55
 496  0.333  0.417  0.792- 115 1.55 155 1.55 163 1.55 211 1.55
 497  0.333  0.667  0.292- 212 1.55 156 1.55 164 1.55 116 1.55
 498  0.333  0.666  0.792- 117 1.55 165 1.55 157 1.55 213 1.55
 499  0.333  0.917  0.292- 118 1.55 158 1.55 214 1.55 166 1.55
 500  0.333  0.917  0.792- 215 1.55 167 1.55 159 1.55 119 1.55
 501  0.500  0.167  0.292- 216 1.55 120 1.55 160 1.55 168 1.55
 502  0.500  0.167  0.792- 217 1.55 169 1.55 161 1.55 121 1.55
 503  0.500  0.417  0.292- 122 1.54 218 1.55 162 1.55 170 1.56
 504  0.500  0.416  0.793- 123 1.54 219 1.54 163 1.55 171 1.55
 505  0.500  0.667  0.290- 220 1.54 164 1.55 172 1.55 124 1.55
 506  0.500  0.667  0.792- 165 1.55 173 1.55 125 1.55 221 1.55
 507  0.500  0.917  0.292- 222 1.55 126 1.55 166 1.55 174 1.55
 508  0.500  0.917  0.792- 223 1.55 127 1.55 167 1.55 175 1.55
 509  0.667  0.167  0.292- 128 1.55 176 1.55 224 1.55 168 1.55
 510  0.667  0.167  0.792- 225 1.55 169 1.55 177 1.55 129 1.55
 511  0.667  0.417  0.290- 226 1.54 130 1.55 178 1.55 170 1.55
 512  0.667  0.417  0.792- 131 1.55 179 1.55 171 1.55 227 1.55
 513  0.667  0.667  0.292- 228 1.55 180 1.55 172 1.55 132 1.55
 514  0.667  0.667  0.792- 173 1.55 133 1.55 181 1.55 229 1.55
 515  0.667  0.917  0.292- 134 1.55 182 1.55 230 1.55 174 1.55
 516  0.667  0.917  0.792- 231 1.55 175 1.55 183 1.55 135 1.55
 517  0.833  0.167  0.292- 184 1.55 136 1.55 232 1.55 176 1.55
 518  0.833  0.167  0.792- 233 1.55 185 1.55 137 1.55 177 1.55
 519  0.833  0.417  0.292- 178 1.55 186 1.55 234 1.55 138 1.55
 520  0.833  0.417  0.792- 235 1.55 179 1.55 187 1.55 139 1.55
 521  0.833  0.667  0.292- 188 1.55 236 1.55 140 1.55 180 1.55
 522  0.833  0.667  0.792- 237 1.55 141 1.55 181 1.55 189 1.55
 523  0.833  0.917  0.292- 190 1.55 142 1.55 238 1.55 182 1.55
 524  0.833  0.917  0.792- 239 1.55 191 1.55 143 1.55 183 1.55
 525  0.083  0.042  0.292- 104 1.55 150 1.55 240 1.55  96 1.55
 526  0.083  0.042  0.792- 241 1.55 105 1.55 151 1.55  97 1.55
 527  0.083  0.292  0.292- 106 1.55 242 1.55 144 1.55  98 1.55
 528  0.083  0.292  0.792- 243 1.55 107 1.55  99 1.55 145 1.55
 529  0.083  0.542  0.292- 100 1.55 244 1.55 108 1.55 146 1.55
 530  0.083  0.542  0.792- 245 1.55 109 1.55 147 1.55 101 1.55
 531  0.083  0.792  0.292- 110 1.55 246 1.55 148 1.55 102 1.55
 532  0.083  0.792  0.792- 247 1.55 149 1.55 111 1.55 103 1.55
 533  0.250  0.042  0.292- 248 1.55 158 1.55 104 1.55 112 1.55
 534  0.250  0.042  0.792- 249 1.55 113 1.55 105 1.55 159 1.55
 535  0.250  0.291  0.292- 114 1.54 250 1.55 152 1.55 106 1.55
 536  0.250  0.292  0.792- 251 1.55 153 1.55 107 1.55 115 1.55
 537  0.250  0.542  0.292- 252 1.55 108 1.55 154 1.55 116 1.55
 538  0.250  0.542  0.792- 155 1.55 109 1.55 117 1.55 253 1.55
 539  0.250  0.792  0.292- 254 1.55 110 1.55 118 1.55 156 1.55
 540  0.250  0.792  0.792- 255 1.55 157 1.55 119 1.55 111 1.55
 541  0.417  0.042  0.292- 256 1.55 166 1.55 112 1.55 120 1.55
 542  0.417  0.042  0.792- 257 1.55 113 1.55 167 1.55 121 1.55
 543  0.417  0.292  0.292- 258 1.55 160 1.55 114 1.55 122 1.55
 544  0.417  0.292  0.792- 161 1.55 115 1.55 123 1.55 259 1.55
 545  0.417  0.541  0.292- 116 1.54 260 1.55 162 1.55 124 1.56
 546  0.416  0.542  0.793- 117 1.54 261 1.54 163 1.55 125 1.55
 547  0.417  0.792  0.292- 118 1.55 262 1.55 164 1.55 126 1.55
 548  0.417  0.792  0.792- 263 1.55 119 1.55 165 1.55 127 1.55
 549  0.583  0.042  0.292- 174 1.55 128 1.55 264 1.55 120 1.55
 550  0.583  0.042  0.792- 265 1.55 129 1.55 121 1.55 175 1.55
 551  0.583  0.292  0.292- 266 1.55 130 1.55 168 1.55 122 1.55
 552  0.583  0.292  0.792- 131 1.55 123 1.55 169 1.55 267 1.55
 553  0.583  0.542  0.292- 268 1.54 132 1.54 170 1.55 124 1.55
 554  0.584  0.542  0.793- 133 1.54 269 1.54 171 1.55 125 1.55
 555  0.583  0.792  0.292- 172 1.55 270 1.55 134 1.55 126 1.55
 556  0.583  0.792  0.792- 271 1.55 135 1.55 173 1.55 127 1.55
 557  0.750  0.042  0.292- 182 1.55 136 1.55 272 1.55 128 1.55
 558  0.750  0.042  0.792- 273 1.55 137 1.55 129 1.55 183 1.55
 559  0.750  0.292  0.292- 138 1.55 176 1.55 274 1.55 130 1.55
 560  0.750  0.292  0.792- 275 1.55 139 1.55 131 1.55 177 1.55
 561  0.750  0.542  0.292- 276 1.55 140 1.55 178 1.55 132 1.55
 562  0.750  0.542  0.792- 133 1.55 179 1.55 141 1.55 277 1.55
 563  0.750  0.792  0.292- 142 1.55 278 1.55 180 1.55 134 1.55
 564  0.750  0.792  0.792- 279 1.55 181 1.55 135 1.55 143 1.55
 565  0.917  0.042  0.292-  96 1.55 190 1.55 280 1.55 136 1.55
 566  0.917  0.042  0.792- 281 1.55  97 1.55 191 1.55 137 1.55
 567  0.917  0.292  0.292-  98 1.55 282 1.55 184 1.55 138 1.55
 568  0.917  0.292  0.792- 283 1.55 139 1.55  99 1.55 185 1.55
 569  0.917  0.542  0.292- 140 1.55 284 1.55 100 1.55 186 1.55
 570  0.917  0.542  0.792- 285 1.55 141 1.55 187 1.55 101 1.55
 571  0.917  0.792  0.292- 102 1.55 188 1.55 286 1.55 142 1.55
 572  0.917  0.792  0.792- 287 1.55 189 1.55 143 1.55 103 1.55
 573  0.470  0.485  0.483- 448 1.09
 574  0.502  0.589  0.454-  77 1.49 124 1.49  69 1.51
 575  0.590  0.457  0.454-  37 1.49 170 1.49  75 1.51
 576  0.500  0.500  0.637- 219 1.48 261 1.48 269 1.48
 
  LATTYP: Found a simple monoclinic cell.
 ALAT       =    12.3703241348
 B/A-ratio  =     1.2248453018
 C/A-ratio  =     1.4141600350
 COS(beta)  =    -0.0000282295
  
  Lattice vectors:
  
 A1 = (   0.0000000000,  -0.0003492082,  12.3703241299)
 A2 = (  15.1517333984,   0.0000000000,   0.0000000000)
 A3 = (   0.0000000000,  17.4936180115,   0.0000000000)


Analysis of symmetry for initial positions (statically):
=====================================================================
 Subroutine PRICEL returns:
 Original cell was already a primitive cell.
 

 Routine SETGRP: Setting up the symmetry group for a 
 simple monoclinic supercell.


 Subroutine GETGRP returns: Found  1 space group operations
 (whereof  1 operations were pure point group operations)
 out of a pool of  4 trial point group operations.


The static configuration has the point symmetry C_1 .


Analysis of symmetry for dynamics (positions and initial velocities):
=====================================================================
 Subroutine PRICEL returns:
 Original cell was already a primitive cell.
 

 Routine SETGRP: Setting up the symmetry group for a 
 simple monoclinic supercell.


 Subroutine GETGRP returns: Found  1 space group operations
 (whereof  1 operations were pure point group operations)
 out of a pool of  4 trial point group operations.


The dynamic configuration has the point symmetry C_1 .


Analysis of structural, dynamic, and magnetic symmetry:
=====================================================================
 Subroutine PRICEL returns:
 Original cell was already a primitive cell.
 

 Routine SETGRP: Setting up the symmetry group for a 
 simple monoclinic supercell.


 Subroutine GETGRP returns: Found  1 space group operations
 (whereof  1 operations were pure point group operations)
 out of a pool of  4 trial point group operations.


The overall configuration has the point symmetry C_1 .


 Subroutine INISYM returns: Found  1 space group operations
 (whereof  1 operations are pure point group operations),
 and found     1 'primitive' translations


----------------------------------------------------------------------------------------

                                     Primitive cell                                     

  volume of cell :    3278.8612

  direct lattice vectors                    reciprocal lattice vectors
    15.151733398  0.000000000  0.000000000     0.065999049  0.000000000  0.000000000
     0.000000000 17.493618012  0.000000000     0.000000000  0.057163704  0.000001614
     0.000000000 -0.000349208 12.370324130     0.000000000  0.000000000  0.080838626

  length of vectors
    15.151733398 17.493618012 12.370324135     0.065999049  0.057163704  0.080838626

  position of ions in fractional coordinates (direct lattice)
     0.999991861  0.999968591  0.999985813
     0.999991063  0.999947167  0.500021569
     0.999964451  0.249973706  0.999927700
     0.999906818  0.249956094  0.499944746
     0.999964565  0.499991446  0.999958505
     0.999981035  0.499946101  0.499946606
     0.000009418  0.749974242  0.999991374
     0.000055060  0.749963286  0.500017340
     0.166663349  0.999966419  0.999999366
     0.166630747  0.999927796  0.500015230
     0.166582011  0.249943061  0.999942394
     0.166471266  0.249833864  0.499976087
     0.166595259  0.499969975  0.000057039
     0.166110755  0.499812015  0.499949692
     0.166680417  0.749962143  0.000018626
     0.166793655  0.749854790  0.500001512
     0.333352853  0.000000003  0.999992283
     0.333360203  0.999999160  0.500004178
     0.333281578  0.249958163  0.000083916
     0.332859536  0.249599518  0.499932938
     0.333217309  0.499984855  0.000394603
     0.332164186  0.499091331  0.499414852
     0.333355478  0.749975389  0.000055671
     0.333476603  0.749978830  0.499918762
     0.500010674  0.000033357  0.999966132
     0.500005443  0.000059668  0.499987887
     0.499975959  0.249953538  0.000262087
     0.499970518  0.250548815  0.499892530
     0.499963073  0.499988157  0.000445909
     0.500012465  0.750106927  0.999830901
     0.500163969  0.749922345  0.499936121
     0.666657460  0.000046422  0.999965686
     0.666651976  0.000103810  0.499995402
     0.666642564  0.250028000  0.000027706
     0.666699603  0.250129404  0.499906359
     0.666738254  0.500022631  0.000203927
     0.666300912  0.499835326  0.498917330
     0.666666723  0.750027038  0.999980334
     0.666913340  0.750450241  0.499859737
     0.833327905  0.000006576  0.999987436
     0.833359680  0.000053074  0.500015084
     0.833329514  0.249998168  0.999900809
     0.833280406  0.250040962  0.499943114
     0.833344074  0.499996911  0.999966499
     0.833812890  0.499992536  0.499851944
     0.833334010  0.749992582  0.999984832
     0.833376371  0.750015393  0.499974621
     0.083297098  0.124961860  0.999954540
     0.083245410  0.124913249  0.499978875
     0.083243411  0.374957792  0.999891579
     0.083087790  0.374910413  0.499955063
     0.083307641  0.624979791  0.000027593
     0.083452021  0.624944638  0.499977747
     0.083342391  0.874961474  0.999990768
     0.083376901  0.874920756  0.500013680
     0.249978631  0.124962763  0.999984821
     0.249855030  0.124835912  0.499973624
     0.249799442  0.374892875  0.999904117
     0.249466884  0.374710300  0.499998095
     0.249913425  0.624996969  0.000307185
     0.250563787  0.624681163  0.499911414
     0.250026588  0.874971104  0.999996644
     0.250053368  0.874978179  0.499992847
     0.416662001  0.125004940  0.000018818
     0.416678451  0.125105159  0.499974290
     0.416602793  0.374908233  0.000417089
     0.415176693  0.374517465  0.499404196
     0.416606856  0.625010040  0.000376310
     0.418509501  0.623595334  0.499261385
     0.416686249  0.875023479  0.999939732
     0.416722889  0.874984810  0.499962030
     0.583324496  0.125044705  0.999990239
     0.583269674  0.125199681  0.499970632
     0.583302801  0.374952513  0.000342659
     0.582811254  0.377059831  0.499272968
     0.583391605  0.625071477  0.000227043
     0.582980276  0.624840743  0.498904267
     0.583334019  0.875052113  0.999909868
     0.583377657  0.875062501  0.499958700
     0.749987172  0.125029930  0.999970330
     0.750004392  0.125046000  0.499977269
     0.750113742  0.374947024  0.999774340
     0.749925040  0.375189989  0.499898695
     0.750065478  0.625031798  0.000162003
     0.749887557  0.624952884  0.499757073
     0.749995750  0.875013931  0.999966630
     0.750088479  0.875177613  0.499979147
     0.916650979  0.124985756  0.999948457
     0.916632038  0.124998622  0.499985391
     0.916662942  0.374981803  0.999862706
     0.916597750  0.375005904  0.499918408
     0.916659698  0.624989460  0.999982615
     0.916712666  0.625009640  0.499949599
     0.916670676  0.874980176  0.999983287
     0.916702275  0.874992439  0.500012956
     0.999962545  0.083289739  0.333326036
     0.999979159  0.083304641  0.833307684
     0.999897440  0.333298520  0.333270358
     0.999944082  0.333321290  0.833249379
     0.000026357  0.583312793  0.333319210
     0.999964397  0.583314488  0.833311628
     0.000034070  0.833310788  0.333357243
     0.000007870  0.833281328  0.833321822
     0.166605048  0.083247431  0.333309214
     0.166666462  0.083294646  0.833302351
     0.166491428  0.333225544  0.333270082
     0.166569537  0.333284624  0.833256655
     0.166735938  0.583245330  0.333372551
     0.166677391  0.583269432  0.833352157
     0.166729876  0.833262613  0.333348335
     0.166727952  0.833253977  0.833306437
     0.333296850  0.083321293  0.333327918
     0.333334062  0.083341790  0.833306306
     0.332960515  0.333067534  0.333175202
     0.333236965  0.333296081  0.833478361
     0.333606530  0.583064335  0.333514644
     0.333093622  0.583351508  0.834154281
     0.333375570  0.833301519  0.333333653
     0.333372788  0.833267327  0.833288629
     0.499985131  0.083396133  0.333357789
     0.500001274  0.083404502  0.833292546
     0.499872177  0.333656147  0.333489806
     0.499914854  0.333150527  0.834148543
     0.500535910  0.583638332  0.333893199
     0.499933370  0.583406830  0.834143320
     0.500051242  0.833300907  0.333314327
     0.500007922  0.833327511  0.833244254
     0.666652041  0.083422518  0.333333315
     0.666646079  0.083416002  0.833271851
     0.666598782  0.333523926  0.333227981
     0.666594171  0.333425509  0.833327443
     0.666685458  0.583358687  0.333278486
     0.666769308  0.583386014  0.833958049
     0.666752091  0.833458811  0.333279540
     0.666652918  0.833312843  0.833264071
     0.833306815  0.083356529  0.333318909
     0.833289639  0.083356686  0.833297757
     0.833237873  0.333392466  0.333265646
     0.833289215  0.333355707  0.833171172
     0.833376075  0.583366485  0.333282034
     0.833231672  0.583300091  0.833243333
     0.833355012  0.833373027  0.333320747
     0.833297518  0.833292698  0.833303648
     0.083257042  0.208263556  0.333287591
     0.083299585  0.208301513  0.833274486
     0.083190427  0.458271847  0.333277521
     0.083281178  0.458317560  0.833322002
     0.083394189  0.708291699  0.333385446
     0.083388693  0.708275530  0.833312583
     0.083350795  0.958279507  0.333352450
     0.083360105  0.958279278  0.833336695
     0.249832380  0.208183508  0.333308325
     0.249955427  0.208308730  0.833356670
     0.249601192  0.458163209  0.333189714
     0.249918332  0.458286873  0.833494567
     0.250131051  0.708206541  0.333419055
     0.250097777  0.708230750  0.833304605
     0.250009321  0.958302402  0.333377816
     0.250035458  0.958299954  0.833348489
     0.416601302  0.208389617  0.333372132
     0.416616347  0.208380473  0.833356567
     0.415349167  0.457652904  0.332832235
     0.416395738  0.458196573  0.834330871
     0.416799160  0.708214163  0.333279539
     0.416693870  0.708241681  0.833356440
     0.416668186  0.958333236  0.333345421
     0.416673071  0.958344850  0.833283869
     0.583295299  0.208501376  0.333382554
     0.583314091  0.208465858  0.833274952
     0.583869108  0.458609076  0.333859937
     0.583364857  0.458261979  0.834149481
     0.583508358  0.708446680  0.333179490
     0.583330147  0.708277051  0.833311208
     0.583358218  0.958383054  0.333333754
     0.583342527  0.958369854  0.833275270
     0.749970622  0.208396555  0.333342924
     0.749940674  0.208411238  0.833299807
     0.750137821  0.458431434  0.333162212
     0.749909092  0.458360611  0.833324465
     0.750056137  0.708394081  0.333331524
     0.749922727  0.708276451  0.833279026
     0.750015585  0.958416281  0.333354606
     0.749973089  0.958352717  0.833336798
     0.916601306  0.208331179  0.333303821
     0.916614426  0.208338682  0.833266055
     0.916678814  0.458329716  0.333256851
     0.916592071  0.458339649  0.833265992
     0.916699018  0.708349840  0.333364038
     0.916623454  0.708289543  0.833300894
     0.916656557  0.958325711  0.333354219
     0.916634171  0.958308614  0.833335924
     0.999957187  0.166632349  0.166615478
     0.999943014  0.166643931  0.666626025
     0.999955712  0.416629128  0.166558230
     0.999896071  0.416656303  0.666615799
     0.000009473  0.666663168  0.166679812
     0.000018532  0.666600760  0.666638453
     0.000005574  0.916643047  0.166659724
     0.000010121  0.916608367  0.666675291
     0.166577905  0.166598577  0.166615457
     0.166616932  0.166632097  0.666647316
     0.166484663  0.416586684  0.166554271
     0.166593776  0.416616775  0.666689046
     0.166657528  0.666639060  0.166798695
     0.166917850  0.666482818  0.666617223
     0.166675612  0.916633466  0.166681500
     0.166737213  0.916560381  0.666680619
     0.333285562  0.166637794  0.166695148
     0.333377041  0.166806067  0.666699787
     0.332852043  0.416420270  0.166298913
     0.333228440  0.416617740  0.666794174
     0.333364261  0.666620416  0.166877107
     0.333975700  0.665893721  0.666488576
     0.333348925  0.916671207  0.166666836
     0.333403012  0.916602527  0.666638607
     0.499979240  0.166684208  0.166753439
     0.499965722  0.166958014  0.666598571
     0.500009920  0.416729242  0.167154591
     0.499734921  0.418481541  0.668696849
     0.500072292  0.667061790  0.166203467
     0.500087847  0.666295482  0.666450010
     0.500016055  0.916699516  0.166630140
     0.500015500  0.916656246  0.666597664
     0.666645629  0.166717944  0.166695018
     0.666495949  0.166977814  0.666632210
     0.667066928  0.416547050  0.166163674
     0.666294863  0.416948741  0.666469744
     0.666740835  0.666742579  0.166694094
     0.666167881  0.666022236  0.666483236
     0.666681982  0.916741423  0.166626422
     0.666630730  0.916676918  0.666634254
     0.833316228  0.166674938  0.166627274
     0.833248516  0.166749053  0.666624101
     0.833403315  0.416652356  0.166500474
     0.833116537  0.416740008  0.666565535
     0.833382707  0.666701448  0.166717995
     0.833147567  0.666558752  0.666598319
     0.833340385  0.916693518  0.166657410
     0.833286473  0.916637358  0.666688157
     0.083320608  0.041626548  0.166642531
     0.083339178  0.041611335  0.666665061
     0.083254848  0.291616030  0.166579027
     0.083259592  0.291635536  0.666595825
     0.083308631  0.541638507  0.166670088
     0.083417618  0.541626380  0.666695424
     0.083359790  0.791640334  0.166672498
     0.083419070  0.791571392  0.666656763
     0.249985806  0.041636608  0.166631038
     0.250027691  0.041653510  0.666643353
     0.249832790  0.291551451  0.166555761
     0.249924717  0.291659993  0.666665850
     0.249952087  0.541610984  0.166803422
     0.250663712  0.541510642  0.666743164
     0.250027811  0.791627585  0.166683304
     0.250201775  0.791385828  0.666630302
     0.416654549  0.041674846  0.166666930
     0.416675112  0.041741727  0.666625876
     0.416596599  0.291647675  0.166807583
     0.416849404  0.292260005  0.666726514
     0.416716839  0.541653026  0.167187020
     0.418334675  0.540579526  0.668688653
     0.416679570  0.791703676  0.166606905
     0.416771648  0.791469775  0.666588114
     0.583343808  0.041709883  0.166654740
     0.583319915  0.041787173  0.666617148
     0.583311791  0.291720298  0.166817873
     0.582893491  0.292545132  0.666472377
     0.583473209  0.541758872  0.166837925
     0.581321507  0.540681637  0.668171634
     0.583381049  0.791769354  0.166539664
     0.583304459  0.791526977  0.666580174
     0.749998095  0.041709844  0.166621649
     0.749936987  0.041761762  0.666633736
     0.750017822  0.291674102  0.166558972
     0.749832055  0.291877203  0.666556078
     0.750065910  0.541699978  0.166650888
     0.749096294  0.541624716  0.666485211
     0.750025564  0.791716693  0.166620468
     0.749882630  0.791493609  0.666643753
     0.916642425  0.041651683  0.166640518
     0.916624299  0.041654683  0.666661983
     0.916621538  0.291653917  0.166574712
     0.916571824  0.291696698  0.666568889
     0.916670540  0.541666311  0.166623604
     0.916445381  0.541666302  0.666652486
     0.916678683  0.791671654  0.166659209
     0.916628621  0.791603545  0.666660912
     0.999988707  0.999968298  0.124970531
     0.999989622  0.999953872  0.625005189
     0.999948875  0.249970172  0.124910017
     0.999919861  0.249987011  0.624920313
     0.999974785  0.500002657  0.124929869
     0.999935001  0.499997808  0.624961154
     0.000018195  0.749997652  0.124982946
     0.000030651  0.749946179  0.624988369
     0.166654640  0.999960422  0.124976004
     0.166686896  0.999931484  0.624986999
     0.166559283  0.249923400  0.124888165
     0.166585989  0.249944708  0.624955541
     0.166598003  0.499975052  0.124998082
     0.166809090  0.499911583  0.624979430
     0.166672988  0.749968151  0.125015008
     0.166793853  0.749844534  0.624960889
     0.333344652  0.999989346  0.124972627
     0.333372998  0.999992887  0.624962721
     0.333284322  0.249961514  0.125015374
     0.333339189  0.250191375  0.624963269
     0.333272670  0.499965822  0.125171370
     0.334234328  0.499423270  0.624720114
     0.333356403  0.749965669  0.125032998
     0.333653855  0.749594022  0.624864781
     0.500008391  0.000023153  0.124962815
     0.500003061  0.000039298  0.624950148
     0.499978195  0.249985934  0.125138498
     0.499932305  0.250461689  0.624873339
     0.500036454  0.500038573  0.125315471
     0.500027417  0.750156972  0.124592066
     0.500047370  0.749813064  0.624877326
     0.666667954  0.000049161  0.124944457
     0.666628552  0.000066724  0.624960666
     0.666626126  0.250038661  0.125001819
     0.666415272  0.250461478  0.624852663
     0.666759010  0.500024504  0.124900055
     0.665254496  0.499746683  0.624338378
     0.666704916  0.750048241  0.124926637
     0.666489007  0.749762269  0.624853766
     0.833331340  0.000011288  0.124959515
     0.833293755  0.000020672  0.624985920
     0.833315386  0.249996343  0.124891817
     0.833219727  0.250090074  0.624908886
     0.833361782  0.500027559  0.124908552
     0.832996358  0.500016247  0.624847975
     0.833366285  0.750020447  0.124964700
     0.833279613  0.749925029  0.624950549
     0.083278900  0.124947993  0.124937148
     0.083281943  0.124943180  0.624965330
     0.083224476  0.374960720  0.124850175
     0.083210651  0.374982288  0.624946210
     0.083315224  0.624995211  0.125024364
     0.083441587  0.624930957  0.624962141
     0.083337555  0.874967701  0.124987092
     0.083377436  0.874921196  0.624998638
     0.249962606  0.124961634  0.124967130
     0.249993218  0.125013748  0.624975997
     0.249751962  0.374874438  0.124643818
     0.249817863  0.374926622  0.625007610
     0.249954472  0.624994180  0.125185508
     0.250430300  0.624711569  0.624890372
     0.250016627  0.874975634  0.124993977
     0.250110154  0.874855630  0.624970064
     0.416657189  0.124993893  0.125012848
     0.416688231  0.125143236  0.624956910
     0.416601695  0.374965658  0.125184735
     0.416536490  0.375963302  0.624716015
     0.416700340  0.625036100  0.125170289
     0.417881282  0.623848075  0.624524002
     0.416675003  0.875016074  0.124941469
     0.416718152  0.874899688  0.624940086
     0.583315021  0.125034543  0.125002782
     0.583256884  0.125206445  0.624941982
     0.583363822  0.375017450  0.125132142
     0.582768689  0.376511018  0.624542331
     0.583394461  0.625114614  0.124927349
     0.582369437  0.624102733  0.624329632
     0.583357797  0.875057526  0.124894093
     0.583331909  0.874952252  0.624933924
     0.749980129  0.125034839  0.124965011
     0.749901590  0.125157022  0.624950228
     0.750149998  0.374957235  0.124528094
     0.749773665  0.375176443  0.624858326
     0.750085672  0.625061826  0.125028328
     0.749695392  0.624855012  0.624793788
     0.750016421  0.875041465  0.124951789
     0.749953070  0.874960302  0.624971386
     0.916635839  0.124979261  0.124941392
     0.916607694  0.125005639  0.624968678
     0.916667157  0.374994967  0.124833403
     0.916531466  0.375045909  0.624903128
     0.916685607  0.625018881  0.124979650
     0.916596710  0.624971732  0.624939133
     0.916681265  0.874995135  0.124976921
     0.916660468  0.874956040  0.625000678
     0.999951856  0.083278237  0.458337642
     0.999980087  0.083301269  0.958289773
     0.999847900  0.333293270  0.458296277
     0.999954759  0.333318506  0.958216180
     0.000064069  0.583331137  0.458325126
     0.999978327  0.583338572  0.958298138
     0.000044784  0.833298270  0.458363337
     0.000008626  0.833301729  0.958309765
     0.166577137  0.083197407  0.458326758
     0.166654843  0.083292952  0.958286817
     0.166343897  0.333158230  0.458331162
     0.166547419  0.333272925  0.958162328
     0.166787604  0.583227470  0.458354044
     0.166636526  0.583317103  0.958385096
     0.166741298  0.833245464  0.458342782
     0.166692009  0.833289098  0.958306405
     0.333318663  0.083318439  0.458320749
     0.333339453  0.083322754  0.958295188
     0.332612175  0.332386624  0.458486768
     0.333254123  0.333272481  0.958434932
     0.333990661  0.582642957  0.458257806
     0.333141673  0.583378248  0.958819418
     0.333321218  0.833333355  0.458352827
     0.333355672  0.833302060  0.958287200
     0.499988443  0.083411231  0.458344092
     0.500005008  0.083365758  0.958297008
     0.499629968  0.334138549  0.458253948
     0.499952161  0.333176672  0.958798041
     0.499976697  0.583388995  0.958814458
     0.500052475  0.833298224  0.458332261
     0.500007032  0.833374457  0.958160917
     0.666628224  0.083439625  0.458326612
     0.666655425  0.083377269  0.958272736
     0.666526085  0.333284504  0.458430045
     0.666637095  0.333350059  0.958318846
     0.666725672  0.583378513  0.458142435
     0.666793143  0.583410556  0.958622594
     0.666917985  0.833606150  0.458333462
     0.666666929  0.833343881  0.958239307
     0.833327920  0.083347117  0.458337099
     0.833311734  0.083337886  0.958279234
     0.833220620  0.333398293  0.458290965
     0.833354523  0.333322206  0.958078603
     0.833463040  0.583390076  0.458285844
     0.833314819  0.583336379  0.958272026
     0.833390790  0.833380387  0.458333713
     0.833330356  0.833317085  0.958285643
     0.083219512  0.208231462  0.458304135
     0.083293700  0.208295553  0.958251844
     0.083029483  0.458315399  0.458352702
     0.083282939  0.458327282  0.958285193
     0.083408244  0.708288486  0.458368381
     0.083360946  0.708308992  0.958311320
     0.083345493  0.958260042  0.458356652
     0.083348058  0.958292302  0.958319744
     0.249762901  0.207996345  0.458350319
     0.249956101  0.208294423  0.958330103
     0.248776816  0.458237580  0.458510535
     0.249903384  0.458304164  0.958446296
     0.250196109  0.708160089  0.458380546
     0.250022565  0.708286536  0.958373159
     0.249999528  0.958310813  0.458379577
     0.250020166  0.958309688  0.958336853
     0.416607557  0.208438318  0.458346327
     0.416640637  0.208331564  0.958384739
     0.410742505  0.455322841  0.455643032
     0.416525213  0.458264315  0.958927802
     0.416550916  0.708290939  0.458465837
     0.416659395  0.708312104  0.958360146
     0.416678118  0.958332281  0.458344404
     0.416670664  0.958349485  0.958276537
     0.583275200  0.208574611  0.458349699
     0.583324333  0.208377987  0.958332000
     0.583371928  0.458301166  0.958808464
     0.584187973  0.708934525  0.458422161
     0.583354579  0.708349943  0.958278163
     0.583350036  0.958386214  0.458336525
     0.583347401  0.958371740  0.958262932
     0.749964528  0.208331532  0.458364840
     0.749964997  0.208364731  0.958284386
[...]
 196      -0.004    -0.000     0.007       0.534
 197      -0.005    -0.002     0.008       0.392
 198       0.001     0.001    -0.002       0.124
 199       0.002     0.001    -0.003       0.127
 200       0.002    -0.000    -0.002       1.069
 201      -0.003    -0.000     0.003       0.935
 202      -0.007    -0.002     0.008       0.624
 203      -0.008    -0.005     0.011       0.293
 204      -0.007    -0.003     0.008       0.546
 205      -0.001     0.001     0.022       0.073
 206      -0.001    -0.000     0.004       0.347
 207      -0.003    -0.001     0.003       0.566
 208       0.005    -0.003    -0.005       1.628
 209      -0.004    -0.003     0.009       0.114
 210      -0.013    -0.010     0.017       0.137
 211      -0.018    -0.016     0.028       0.061
 212      -0.014    -0.011     0.021       0.151
 213      -0.058    -0.018    -0.064      -0.625
 214       0.005    -0.003    -0.005       1.475
 215      -0.005    -0.004     0.007       0.137
 216      -0.008    -0.004     0.008       0.538
 217       0.002    -0.001     0.023      -0.108
 218      -0.031    -0.025     0.033       0.172
 219       0.066     0.012     0.161      -0.332
 220       0.212     0.207     0.351      -0.016
 221      -0.087     0.003    -0.098      -0.908
 222       0.007    -0.004    -0.008       1.306
 223      -0.006    -0.002     0.012       0.353
 224      -0.002     0.002     0.014       0.283
 225       0.008    -0.008    -0.012       1.388
 226       0.222     0.217     0.365      -0.015
 227      -0.087     0.004    -0.099      -0.919
 228      -0.021     0.013    -0.022      -1.543
 229       0.029    -0.025    -0.029       1.836
 230       0.006    -0.003    -0.006       1.380
 231      -0.007    -0.005     0.007       0.347
 232      -0.004     0.004    -0.005      -1.596
 233      -0.005    -0.003     0.006       0.320
 234      -0.019     0.003    -0.024      -0.907
 235      -0.018    -0.013     0.019       0.238
 236      -0.008     0.006    -0.011      -1.291
 237      -0.010     0.009    -0.012      -1.607
 238      -0.003    -0.002     0.003       0.394
 239      -0.004    -0.002     0.004       0.504
 240       0.002     0.000    -0.002       0.774
 241       0.002     0.000    -0.003       0.629
 242       0.004    -0.001    -0.004       1.327
 243      -0.003    -0.001     0.006       0.369
 244      -0.007    -0.001     0.009       0.691
 245      -0.007    -0.002     0.012       0.391
 246      -0.003    -0.001     0.003       0.511
 247      -0.003    -0.001     0.005       0.407
 248      -0.002    -0.001     0.003       0.428
 249      -0.003    -0.001     0.004       0.490
 250      -0.005    -0.003     0.006       0.242
 251      -0.005    -0.004     0.010       0.136
 252       0.012    -0.008    -0.015       1.421
 253      -0.005    -0.003     0.037       0.064
 254       0.001    -0.000     0.013      -0.109
 255      -0.008     0.007    -0.010      -1.487
 256       0.005    -0.002    -0.005       1.425
 257      -0.001     0.000     0.010       0.188
 258       0.012    -0.009    -0.013       1.686
 259      -0.006    -0.003     0.034       0.081
 260      -0.031    -0.026     0.032       0.162
 261       0.066     0.012     0.162      -0.333
 262      -0.017     0.004    -0.021      -0.981
 263      -0.017    -0.012     0.018       0.235
 264      -0.006    -0.002     0.007       0.578
 265      -0.003    -0.000     0.011       0.263
 266      -0.015    -0.011     0.021       0.160
 267      -0.060    -0.019    -0.067      -0.611
 268      -0.087    -0.051    -0.108      -0.333
 269      -0.103     0.026    -0.122      -1.060
 270      -0.019     0.003    -0.022      -0.981
 271      -0.017    -0.013     0.019       0.198
 272      -0.002    -0.000     0.006       0.340
 273       0.005    -0.003    -0.005       1.645
 274      -0.017     0.005    -0.021      -1.020
 275      -0.017    -0.013     0.017       0.208
 276      -0.021     0.013    -0.022      -1.533
 277      -0.029    -0.025     0.030       0.162
 278       0.001    -0.001     0.014      -0.108
 279       0.008    -0.008    -0.010       1.573
 280       0.002    -0.001    -0.002       1.224
 281       0.003    -0.000    -0.003       1.161
 282       0.005    -0.004    -0.006       1.547
 283      -0.004    -0.003     0.010       0.122
 284      -0.005     0.001     0.014       0.395
 285       0.010    -0.007    -0.013       1.349
 286      -0.003    -0.002     0.004       0.325
 287      -0.004    -0.002     0.005       0.434
 288      -0.002     0.000     0.002       1.014
 289       0.002     0.001    -0.003       0.596
 290       0.002     0.000     0.008      -0.216
 291      -0.002     0.000     0.007       0.305
 292      -0.005     0.002     0.009       0.681
 293       0.005     0.000     0.021      -0.207
 294      -0.002    -0.000     0.004       0.359
 295      -0.005    -0.002     0.005       0.428
 296      -0.002    -0.000     0.002       0.577
 297      -0.002     0.001     0.005       0.643
 298      -0.002    -0.000     0.004       0.452
 299      -0.004    -0.002     0.006       0.414
 300       0.004    -0.003     0.014      -0.461
 301      -0.009    -0.006     0.017       0.210
 302      -0.002    -0.000     0.006       0.255
 303      -0.006    -0.005     0.009       0.108
 304      -0.003    -0.000     0.005       0.386
 305      -0.003    -0.002     0.007       0.188
 306       0.001    -0.001     0.011      -0.144
 307      -0.011     0.009    -0.012      -1.697
 308       0.005    -0.001     0.034      -0.167
 309      -0.041     0.033    -0.043      -1.708
 310      -0.006    -0.004     0.012       0.148
 311       0.005     0.003     0.046      -0.047
 312       0.003    -0.002     0.011      -0.406
 313      -0.005    -0.003     0.010       0.225
 314       0.003    -0.000     0.021      -0.149
 315       0.056     0.051     0.094      -0.049
 316      -0.028     0.009    -0.050      -0.752
 317       0.108     0.097     0.181      -0.062
 318       0.036     0.018     0.089      -0.203
 319      -0.004    -0.001     0.006       0.494
 320      -0.004    -0.002     0.010       0.205
 321      -0.006    -0.003     0.013       0.249
 322       0.007     0.003     0.048      -0.065
 323      -0.028     0.011    -0.040      -0.976
 324       0.582     0.569     0.837      -0.015
 325       0.003    -0.001     0.021      -0.200
 326       0.019     0.017     0.060      -0.041
 327      -0.002    -0.001     0.003       0.345
 328      -0.004     0.002    -0.006      -0.957
 329       0.002     0.000     0.016      -0.149
 330      -0.005    -0.004     0.013       0.123
 331       0.003    -0.001     0.022      -0.171
 332       0.018     0.014     0.060      -0.068
 333      -0.002     0.000     0.007       0.301
 334      -0.005    -0.004     0.011       0.152
 335      -0.001     0.001     0.002       1.449
 336       0.002     0.002    -0.003       0.033
 337      -0.003     0.002     0.007       0.666
 338      -0.005    -0.003     0.009       0.254
 339       0.004    -0.001     0.010      -0.434
 340      -0.007    -0.004     0.011       0.243
 341      -0.002     0.000     0.002       0.822
 342      -0.002     0.001     0.004       0.790
 343      -0.002    -0.000     0.003       0.348
 344       0.004    -0.002    -0.005       1.337
 345      -0.007    -0.003     0.008       0.527
 346       0.013    -0.012    -0.013       1.881
 347      -0.002     0.002     0.020       0.194
 348       0.050     0.047     0.089      -0.028
 349      -0.003    -0.002     0.004       0.258
 350       0.007     0.006     0.019      -0.068
 351       0.003    -0.001     0.009      -0.412
 352      -0.005    -0.003     0.010       0.142
 353       0.003    -0.000     0.033      -0.094
 354      -0.045     0.028    -0.050      -1.464
 355       0.017     0.014     0.061      -0.045
 356       0.331     0.290     0.504      -0.080
 357       0.004    -0.001     0.017      -0.267
 358      -0.007    -0.004     0.014       0.264
 359      -0.003     0.001     0.009       0.443
 360      -0.008    -0.005     0.012       0.188
 361       0.017     0.014     0.061      -0.047
 362       0.338     0.298     0.515      -0.078
 363      -0.028     0.010    -0.041      -0.943
 364       0.569     0.555     0.821      -0.017
 365       0.007     0.002     0.022      -0.225
 366      -0.008    -0.003     0.015       0.310
 367      -0.004    -0.001     0.005       0.467
 368       0.005     0.004     0.019      -0.044
 369       0.113     0.102     0.188      -0.059
 370       0.036     0.018     0.090      -0.199
 371      -0.010     0.001     0.012       0.932
 372      -0.038    -0.010    -0.059      -0.460
 373      -0.002    -0.000     0.007       0.258
 374       0.008     0.007     0.021      -0.073
 375      -0.001    -0.000     0.004       0.251
 376      -0.003    -0.001     0.004       0.606
 377       0.007     0.002     0.021      -0.215
 378      -0.007    -0.004     0.014       0.262
 379      -0.002    -0.001     0.008       0.217
 380      -0.006    -0.004     0.014       0.178
 381      -0.001     0.000     0.003       0.616
 382      -0.003     0.000     0.004       0.877
 383       0.004     0.000     0.007      -0.625
 384      -0.001    -0.000     0.001       0.717
 385      -0.004    -0.001     0.016       0.156
 386      -0.003     0.002     0.004       1.204
 387      -0.013     0.009    -0.013      -1.676
 388      -0.005     0.003     0.006       1.285
 389      -0.004     0.001     0.005       0.931
 390      -0.001    -0.000     0.001       0.276
 391      -0.004     0.000     0.006       0.727
 392      -0.001    -0.000     0.002       0.480
 393      -0.006    -0.004     0.012       0.217
 394       0.003     0.001    -0.004       0.353
 395      -0.012    -0.010     0.020       0.086
 396       0.003     0.003    -0.007       0.012
 397       0.002    -0.001     0.014      -0.238
 398      -0.001     0.001     0.002       0.913
 399      -0.002    -0.000     0.010       0.177
 400      -0.003    -0.000     0.003       0.813
 401      -0.042     0.003    -0.048      -0.948
 402      -0.004     0.002     0.007       0.794
 403       0.302     0.255     0.470      -0.098
 404       0.003    -0.003     0.019      -0.336
 405       0.166     0.159     0.260      -0.025
 406       0.003     0.002    -0.004       0.341
 407      -0.006    -0.006     0.014       0.061
 408      -0.004     0.001     0.005       1.205
 409       0.325     0.275     0.491      -0.102
 410      -0.003     0.002     0.018       0.264
 411      -0.011    -0.008     0.024       0.115
 412       0.083     0.082     0.164      -0.006
 413       0.011     0.001     0.021      -0.491
 414       0.006     0.006     0.024      -0.025
 415       0.004     0.001    -0.004       0.805
 416       2.266     2.249     3.162      -0.005
 417       0.020     0.015     0.037      -0.151
 418      -0.164     0.044     0.212       0.980
 419      -0.012    -0.010     0.014       0.115
 420       0.099     0.093     0.172      -0.035
 421       0.004     0.002    -0.005       0.349
 422       0.006     0.002     0.027      -0.156
 423      -0.002    -0.000     0.002       0.675
 424       0.086     0.085     0.168      -0.006
 425       0.010     0.002     0.020      -0.423
 426      -0.028     0.007    -0.040      -0.880
 427      -0.006     0.002     0.007       1.074
 428      -0.010     0.001    -0.013      -0.826
 429      -0.001     0.001     0.002       1.061
 430      -0.004     0.002     0.005       1.195
 431      -0.000    -0.000     0.002       0.160
 432      -0.007    -0.006     0.026       0.057
 433      -0.005     0.003     0.006       1.368
 434      -0.003    -0.001     0.013       0.147
 435       0.003     0.001    -0.003       0.614
 436       0.004    -0.000     0.006      -0.659
 437      -0.001     0.000     0.002       0.656
 438      -0.005    -0.002     0.010       0.288
 439      -0.002     0.001     0.002       1.280
 440      -0.045     0.008    -0.049      -1.095
 441      -0.006     0.003     0.007       1.278
 442      -0.010    -0.007     0.035       0.084
 443      -0.004     0.002     0.006       1.090
 444       0.025     0.023     0.043      -0.049
 445      -0.002    -0.001     0.002       0.627
 446      -0.005    -0.003     0.022       0.098
 447       0.002     0.001    -0.006       0.192
 448      -0.638    -0.561    -0.756      -0.101
 449      -0.010    -0.007     0.018       0.160
 450       2.230     2.213     3.097      -0.005
 451       0.020     0.014     0.036      -0.156
 452      -0.003    -0.003     0.018       0.032
 453      -0.004     0.002     0.005       1.048
 454      -0.008    -0.006     0.037       0.062
 455      -0.005     0.004     0.006       1.351
 456      -0.011    -0.008     0.025       0.126
 457       1.727     1.700     2.450      -0.011
 458      -0.005    -0.001     0.019       0.221
 459      -0.003    -0.002     0.020       0.051
 460      -0.004     0.002     0.006       1.027
 461       0.172     0.165     0.268      -0.027
 462       0.003     0.002    -0.004       0.332
 463       1.746     1.717     2.495      -0.011
 464      -0.006    -0.000     0.019       0.284
 465      -0.027     0.005    -0.040      -0.796
 466      -0.004     0.000     0.007       0.648
 467       0.025     0.025     0.041      -0.020
 468      -0.003    -0.000     0.003       0.831
 469       0.002    -0.001     0.017      -0.188
 470      -0.002     0.001     0.003       0.910
 471       0.090     0.083     0.170      -0.043
 472       0.004     0.003    -0.007       0.232
 473      -0.009     0.006    -0.011      -1.300
 474       0.003     0.002    -0.003       0.431
 475       0.009     0.003     0.010      -0.622
 476      -0.001    -0.000     0.002       0.271
 477       0.002    -0.001     0.008      -0.405
 478      -0.001    -0.000     0.002       0.636
 479       0.005     0.002     0.024      -0.146
 480       0.006     0.000    -0.006       0.972
 481      -0.004    -0.003     0.009       0.118
 482      -0.005    -0.000     0.005       0.848
 483       0.002    -0.002     0.002      -1.867
 484      -0.001     0.001     0.001       1.641
 485      -0.003     0.001     0.004       1.141
 486      -0.001    -0.000     0.002       0.629
 487      -0.006    -0.002     0.015       0.207
 488       0.007    -0.001    -0.007       1.148
 489      -0.001    -0.001     0.020       0.037
 490      -0.006    -0.001     0.007       0.683
 491      -0.003    -0.001     0.004       0.575
 492      -0.002    -0.001     0.003       0.308
 493       0.003     0.001     0.014      -0.163
 494      -0.004    -0.001     0.005       0.435
 495      -0.016    -0.014     0.036       0.070
 496       0.012    -0.010    -0.014       1.626
 497       0.033     0.020     0.086      -0.161
 498      -0.010    -0.005     0.017       0.283
 499       0.003     0.002     0.020      -0.020
 500      -0.004    -0.001     0.005       0.591
 501       0.008     0.003     0.025      -0.209
 502      -0.007    -0.002     0.007       0.685
 503       0.556     0.539     0.804      -0.020
 504       0.025    -0.025    -0.028       1.807
 505       1.752     1.723     2.496      -0.011
 506       0.056     0.050     0.115      -0.048
 507       0.016     0.014     0.047      -0.050
 508      -0.005     0.003     0.008       0.949
 509      -0.007    -0.005     0.014       0.097
 510      -0.005    -0.001     0.008       0.568
 511       1.797     1.767     2.563      -0.012
 512       0.057     0.052     0.117      -0.048
 513       0.052    -0.000     0.091      -0.576
 514       0.009     0.007     0.041      -0.037
 515       0.006     0.005     0.025      -0.039
 516      -0.005    -0.000     0.006       0.756
 517       0.003     0.001     0.019      -0.095
 518      -0.003    -0.001     0.004       0.400
 519       0.093     0.092     0.182      -0.009
 520       0.013     0.005     0.029      -0.278
 521      -0.010     0.004     0.014       1.058
 522      -0.007    -0.003     0.008       0.499
 523      -0.003    -0.000     0.006       0.531
 524      -0.002    -0.001     0.003       0.327
 525      -0.002     0.001     0.003       1.051
 526      -0.002     0.000     0.002       1.046
 527       0.002    -0.002     0.010      -0.368
 528      -0.002    -0.000     0.004       0.584
 529       0.002    -0.002     0.018      -0.175
 530       0.006    -0.001    -0.008       0.949
 531      -0.004    -0.001     0.006       0.445
 532      -0.002    -0.001     0.003       0.515
 533      -0.002     0.001     0.006       0.383
 534      -0.002    -0.001     0.003       0.290
 535      -0.006    -0.004     0.011       0.163
 536       0.005    -0.003    -0.005       1.586
 537       0.059     0.058     0.114      -0.009
 538      -0.011    -0.005     0.012       0.531
 539      -0.007    -0.005     0.012       0.169
 540      -0.003    -0.001     0.007       0.296
 541       0.002    -0.000     0.014      -0.156
 542      -0.004    -0.000     0.006       0.581
 543       0.057     0.054     0.111      -0.029
 544      -0.009    -0.005     0.013       0.271
 545       0.558     0.541     0.803      -0.022
 546      -0.026    -0.023     0.027       0.102
 547       0.082     0.079     0.162      -0.018
 548       0.012     0.006     0.028      -0.220
 549       0.002    -0.000     0.016      -0.138
 550      -0.004     0.000     0.007       0.651
 551       0.037     0.022     0.089      -0.172
 552      -0.011    -0.005     0.018       0.309
 553      -0.180     0.030     0.184       1.147
 554      -0.015    -0.010     0.046       0.098
 555       0.094     0.093     0.182      -0.011
 556       0.012     0.005     0.028      -0.262
 557      -0.002    -0.002     0.008       0.093
 558      -0.003    -0.000     0.005       0.547
 559       0.083     0.080     0.165      -0.015
 560       0.012     0.007     0.028      -0.183
 561       0.054    -0.000     0.090      -0.603
 562       0.010     0.006     0.042      -0.090
 563       0.007     0.001     0.024      -0.216
 564      -0.006    -0.003     0.006       0.414
 565      -0.002     0.001     0.005       0.627
 566      -0.001     0.000     0.003       0.409
 567       0.020     0.019     0.049      -0.026
 568       0.003    -0.002     0.007      -0.855
 569       0.005     0.003     0.027      -0.088
 570       0.008    -0.001    -0.008       1.098
 571      -0.004    -0.001     0.006       0.533
 572      -0.002    -0.001     0.003       0.368
 573       0.241     0.036    -0.397       0.517
 574      14.773    14.728    25.632      -0.002
 575      15.047    15.002    26.242      -0.002
 576      -0.625    -0.532    -0.738      -0.126
 ---------------------------------------------------------------------



--------------------------------------------------------------------------------------------------------


     LOOP+:  cpu time 1108.4751: real time 1111.7716
    4ORBIT:  cpu time    0.0000: real time    0.0000

 total amount of memory used by VASP MPI-rank0   238705. kBytes
=======================================================================

   base      :      30000. kBytes
   nonlr-proj:       9228. kBytes
   fftplans  :      15014. kBytes
   grid      :      46644. kBytes
   one-center:        294. kBytes
   wavefun   :     137525. kBytes
 
  
  
 General timing and accounting informations for this job:
 ========================================================
  
                  Total CPU time used (sec):     1142.902
                            User time (sec):     1138.513
                          System time (sec):        4.390
                         Elapsed time (sec):     1146.845
  
                   Maximum memory used (kb):      430592.
                   Average memory used (kb):          N/A
  
                          Minor page faults:       713009
                          Major page faults:            0
                 Voluntary context switches:        11922
