 vasp.6.2.0 18Jan21 (build Apr 30 2021 19:00:08) gamma-only                     
  
 executed on             LinuxIFC date 2022.12.30  16:22:42
 running on   24 total cores
 distrk:  each k-point on   24 cores,    1 groups
 distr:  one band on NCORE=   6 cores,    4 groups


--------------------------------------------------------------------------------------------------------


 INCAR:
   SYSTEM = Diamond
   PREC = Normal
   ISTART = 0
   ICHARG = 11
   ISPIN = 2
   MAGMOM = 572*0.0 1*2.0 2*2.0 1*3
   NPAR = 4
   NELECT = 2303
   LHYPERFINE = T
   LEFG = T
   ENCUT = 700
   NELM = 1000
   NELMIN = 4
   EDIFF = 1E-06
   LREAL = Auto
   ALGO = Normal
   EDIFFG = -1E-02
   NSW = 0
   IBRION = 2
   ISIF = 2
   ISYM = 2
   POTIM = 0.5
   ISMEAR = 0
   SIGMA = 0.05
   NEDOS = 1000
   LWAVE = F
   LCHARG = F
   LVHAR = F
   LELF = F

 POTCAR:    PAW_PBE C 08Apr2002                   
 POTCAR:    PAW_PBE H 15Jun2001                   
 POTCAR:    PAW_PBE C 08Apr2002                   
 POTCAR:    PAW_PBE N 08Apr2002                   
 POTCAR:    PAW_PBE C 08Apr2002                   
   VRHFIN =C: s2p2                                                                                  
   LEXCH  = PE                                                                                      
   EATOM  =   147.1560 eV,   10.8157 Ry                                                             
                                                                                                    
   TITEL  = PAW_PBE C 08Apr2002                                                                     
   LULTRA =        F    use ultrasoft PP ?                                                          
   IUNSCR =        1    unscreen: 0-lin 1-nonlin 2-no                                               
   RPACOR =    1.200    partial core radius                                                         
   POMASS =   12.011; ZVAL   =    4.000    mass and valenz                                          
   RCORE  =    1.500    outmost cutoff radius                                                       
   RWIGS  =    1.630; RWIGS  =    0.863    wigner-seitz radius (au A)                               
   ENMAX  =  400.000; ENMIN  =  300.000 eV                                                          
   ICORE  =        2    local potential                                                             
   LCOR   =        T    correct aug charges                                                         
   LPAW   =        T    paw PP                                                                      
   EAUG   =  644.873                                                                                
   DEXC   =    0.000                                                                                
   RMAX   =    1.529    core radius for proj-oper                                                   
   RAUG   =    1.300    factor for augmentation sphere                                              
   RDEP   =    1.501    radius for radial grids                                                     
   RDEPT  =    1.300    core radius for aug-charge                                                  
                                                                                                    
   Atomic configuration                                                                             
    4 entries                                                                                       
     n  l   j            E        occ.                                                              
     1  0  0.50      -273.3789   2.0000                                                             
     2  0  0.50       -13.7508   2.0000                                                             
     2  1  0.50        -5.2854   2.0000                                                             
     3  2  1.50        -5.4423   0.0000                                                             
   Description                                                                                      
     l       E           TYP  RCUT    TYP  RCUT                                                     
     0    -13.7508458     23  1.200                                                                 
     0     -8.2022199     23  1.200                                                                 
     1     -5.2854383     23  1.500                                                                 
     1     34.0145650     23  1.500                                                                 
     2     -5.4423304      7  1.500                                                                 
  local pseudopotential read in
  partial core-charges read in
  partial kinetic energy density read in
  atomic valenz-charges read in
  non local Contribution for L=           0  read in
    real space projection operators read in
  non local Contribution for L=           0  read in
    real space projection operators read in
  non local Contribution for L=           1  read in
    real space projection operators read in
  non local Contribution for L=           1  read in
    real space projection operators read in
    PAW grid and wavefunctions read in
 
   number of l-projection  operators is LMAX  =           4
   number of lm-projection operators is LMMAX =           8
 
 POTCAR:    PAW_PBE H 15Jun2001                   
   VRHFIN =H: ultrasoft test                                                                        
   LEXCH  = PE                                                                                      
   EATOM  =    12.4884 eV,    0.9179 Ry                                                             
                                                                                                    
   TITEL  = PAW_PBE H 15Jun2001                                                                     
   LULTRA =        F    use ultrasoft PP ?                                                          
   IUNSCR =        0    unscreen: 0-lin 1-nonlin 2-no                                               
   RPACOR =    0.000    partial core radius                                                         
   POMASS =    1.000; ZVAL   =    1.000    mass and valenz                                          
   RCORE  =    1.100    outmost cutoff radius                                                       
   RWIGS  =    0.700; RWIGS  =    0.370    wigner-seitz radius (au A)                               
   ENMAX  =  250.000; ENMIN  =  200.000 eV                                                          
   RCLOC  =    0.701    cutoff for local pot                                                        
   LCOR   =        T    correct aug charges                                                         
   LPAW   =        T    paw PP                                                                      
   EAUG   =  400.000                                                                                
   RMAX   =    1.123    core radius for proj-oper                                                   
   RAUG   =    1.200    factor for augmentation sphere                                              
   RDEP   =    1.112    radius for radial grids                                                     
   RDEPT  =    0.926    core radius for aug-charge                                                  
                                                                                                    
   Atomic configuration                                                                             
    2 entries                                                                                       
     n  l   j            E        occ.                                                              
     1  0  0.50        -6.4927   1.0000                                                             
     2  1  0.50        -3.4015   0.0000                                                             
   Description                                                                                      
     l       E           TYP  RCUT    TYP  RCUT                                                     
     0     -6.4927494     23  1.100                                                                 
     0      6.8029130     23  1.100                                                                 
     1     -4.0817478     23  1.100                                                                 
  local pseudopotential read in
  atomic valenz-charges read in
  non local Contribution for L=           0  read in
    real space projection operators read in
  non local Contribution for L=           0  read in
    real space projection operators read in
  non local Contribution for L=           1  read in
    real space projection operators read in
    PAW grid and wavefunctions read in
 
   number of l-projection  operators is LMAX  =           3
   number of lm-projection operators is LMMAX =           5
 
 POTCAR:    PAW_PBE C 08Apr2002                   
   VRHFIN =C: s2p2                                                                                  
   LEXCH  = PE                                                                                      
   EATOM  =   147.1560 eV,   10.8157 Ry                                                             
                                                                                                    
   TITEL  = PAW_PBE C 08Apr2002                                                                     
   LULTRA =        F    use ultrasoft PP ?                                                          
   IUNSCR =        1    unscreen: 0-lin 1-nonlin 2-no                                               
   RPACOR =    1.200    partial core radius                                                         
   POMASS =   12.011; ZVAL   =    4.000    mass and valenz                                          
   RCORE  =    1.500    outmost cutoff radius                                                       
   RWIGS  =    1.630; RWIGS  =    0.863    wigner-seitz radius (au A)                               
   ENMAX  =  400.000; ENMIN  =  300.000 eV                                                          
   ICORE  =        2    local potential                                                             
   LCOR   =        T    correct aug charges                                                         
   LPAW   =        T    paw PP                                                                      
   EAUG   =  644.873                                                                                
   DEXC   =    0.000                                                                                
   RMAX   =    1.529    core radius for proj-oper                                                   
   RAUG   =    1.300    factor for augmentation sphere                                              
   RDEP   =    1.501    radius for radial grids                                                     
   RDEPT  =    1.300    core radius for aug-charge                                                  
                                                                                                    
   Atomic configuration                                                                             
    4 entries                                                                                       
     n  l   j            E        occ.                                                              
     1  0  0.50      -273.3789   2.0000                                                             
     2  0  0.50       -13.7508   2.0000                                                             
     2  1  0.50        -5.2854   2.0000                                                             
     3  2  1.50        -5.4423   0.0000                                                             
   Description                                                                                      
     l       E           TYP  RCUT    TYP  RCUT                                                     
     0    -13.7508458     23  1.200                                                                 
     0     -8.2022199     23  1.200                                                                 
     1     -5.2854383     23  1.500                                                                 
     1     34.0145650     23  1.500                                                                 
     2     -5.4423304      7  1.500                                                                 
  local pseudopotential read in
  partial core-charges read in
  partial kinetic energy density read in
  atomic valenz-charges read in
  non local Contribution for L=           0  read in
    real space projection operators read in
  non local Contribution for L=           0  read in
    real space projection operators read in
  non local Contribution for L=           1  read in
    real space projection operators read in
  non local Contribution for L=           1  read in
    real space projection operators read in
    PAW grid and wavefunctions read in
 
   number of l-projection  operators is LMAX  =           4
   number of lm-projection operators is LMMAX =           8
 
 POTCAR:    PAW_PBE N 08Apr2002                   
   VRHFIN =N: s2p3                                                                                  
   LEXCH  = PE                                                                                      
   EATOM  =   264.5486 eV,   19.4438 Ry                                                             
                                                                                                    
   TITEL  = PAW_PBE N 08Apr2002                                                                     
   LULTRA =        F    use ultrasoft PP ?                                                          
   IUNSCR =        1    unscreen: 0-lin 1-nonlin 2-no                                               
   RPACOR =    1.200    partial core radius                                                         
   POMASS =   14.001; ZVAL   =    5.000    mass and valenz                                          
   RCORE  =    1.500    outmost cutoff radius                                                       
   RWIGS  =    1.400; RWIGS  =    0.741    wigner-seitz radius (au A)                               
   ENMAX  =  400.000; ENMIN  =  300.000 eV                                                          
   ICORE  =        2    local potential                                                             
   LCOR   =        T    correct aug charges                                                         
   LPAW   =        T    paw PP                                                                      
   EAUG   =  627.112                                                                                
   DEXC   =    0.000                                                                                
   RMAX   =    1.529    core radius for proj-oper                                                   
   RAUG   =    1.300    factor for augmentation sphere                                              
   RDEP   =    1.514    radius for radial grids                                                     
   RDEPT  =    1.338    core radius for aug-charge                                                  
                                                                                                    
   Atomic configuration                                                                             
    4 entries                                                                                       
     n  l   j            E        occ.                                                              
     1  0  0.50      -384.7179   2.0000                                                             
     2  0  0.50       -18.5828   2.0000                                                             
     2  1  0.50        -7.0898   3.0000                                                             
     3  2  1.50        -6.8029   0.0000                                                             
   Description                                                                                      
     l       E           TYP  RCUT    TYP  RCUT                                                     
     0    -18.5828119     23  1.200                                                                 
     0    -13.5018863     23  1.200                                                                 
     1     -7.0897853     23  1.500                                                                 
     1      9.5240782     23  1.500                                                                 
     2     -6.8029130      7  1.500                                                                 
  local pseudopotential read in
  partial core-charges read in
  partial kinetic energy density read in
  atomic valenz-charges read in
  non local Contribution for L=           0  read in
    real space projection operators read in
  non local Contribution for L=           0  read in
    real space projection operators read in
  non local Contribution for L=           1  read in
    real space projection operators read in
  non local Contribution for L=           1  read in
    real space projection operators read in
    PAW grid and wavefunctions read in
 
   number of l-projection  operators is LMAX  =           4
   number of lm-projection operators is LMMAX =           8
 
 Optimization of the real space projectors (new method)

 maximal supplied QI-value         = 25.13
 optimisation between [QCUT,QGAM] = [ 13.32, 26.89] = [ 49.69,202.52] Ry 
 Optimized for a Real-space Cutoff    1.01 Angstroem

   l    n(q)    QCUT    max X(q) W(low)/X(q) W(high)/X(q)  e(spline) 
   0      8    13.321   115.676    0.29E-03    0.42E-03    0.11E-06
   0      8    13.321    87.132    0.29E-03    0.42E-03    0.11E-06
   1      8    13.321     4.429    0.39E-03    0.33E-03    0.98E-07
   1      8    13.321     2.733    0.30E-03    0.26E-03    0.97E-07
 Optimization of the real space projectors (new method)

 maximal supplied QI-value         = 34.20
 optimisation between [QCUT,QGAM] = [ 13.34, 27.02] = [ 49.83,204.46] Ry 
 Optimized for a Real-space Cutoff    0.93 Angstroem

   l    n(q)    QCUT    max X(q) W(low)/X(q) W(high)/X(q)  e(spline) 
   0      7    13.340    19.460    0.47E-03    0.72E-04    0.17E-06
   0      7    13.340    12.209    0.45E-03    0.63E-04    0.16E-06
   1      7    13.340     4.655    0.21E-03    0.61E-03    0.12E-06
 Optimization of the real space projectors (new method)

 maximal supplied QI-value         = 25.13
 optimisation between [QCUT,QGAM] = [ 13.32, 26.89] = [ 49.69,202.52] Ry 
 Optimized for a Real-space Cutoff    1.01 Angstroem

   l    n(q)    QCUT    max X(q) W(low)/X(q) W(high)/X(q)  e(spline) 
   0      8    13.321   115.676    0.29E-03    0.42E-03    0.11E-06
   0      8    13.321    87.132    0.29E-03    0.42E-03    0.11E-06
   1      8    13.321     4.429    0.39E-03    0.33E-03    0.98E-07
   1      8    13.321     2.733    0.30E-03    0.26E-03    0.97E-07
 Optimization of the real space projectors (new method)

 maximal supplied QI-value         = 25.13
 optimisation between [QCUT,QGAM] = [ 13.32, 26.89] = [ 49.69,202.52] Ry 
 Optimized for a Real-space Cutoff    1.01 Angstroem

   l    n(q)    QCUT    max X(q) W(low)/X(q) W(high)/X(q)  e(spline) 
   0      8    13.321    79.467    0.28E-03    0.38E-03    0.11E-06
   0      8    13.321    66.151    0.27E-03    0.38E-03    0.11E-06
   1      8    13.321    23.070    0.40E-03    0.78E-03    0.29E-06
   1      8    13.321    16.668    0.40E-03    0.79E-03    0.30E-06
  PAW_PBE C 08Apr2002                   :
 energy of atom  1       EATOM= -147.1560
 kinetic energy error for atom=    0.0032 (will be added to EATOM!!)
  PAW_PBE H 15Jun2001                   :
 energy of atom  2       EATOM=  -12.4884
 kinetic energy error for atom=    0.0002 (will be added to EATOM!!)
  PAW_PBE C 08Apr2002                   :
 energy of atom  3       EATOM= -147.1560
 kinetic energy error for atom=    0.0032 (will be added to EATOM!!)
  PAW_PBE N 08Apr2002                   :
 energy of atom  4       EATOM= -264.5486
 kinetic energy error for atom=    0.0061 (will be added to EATOM!!)
 
 
 POSCAR: Autosave
  positions in direct lattice
  velocities in cartesian coordinates
 exchange correlation table for  LEXCH =        8
   RHO(1)=    0.500       N(1)  =     2000
   RHO(2)=  100.500       N(2)  =     4000
 


--------------------------------------------------------------------------------------------------------


 ion  position               nearest neighbor table
   1  1.000  1.000  1.000- 288 1.55 437 1.55 384 1.55 475 1.55
   2  1.000  1.000  0.500- 436 1.55 289 1.55 383 1.55 474 1.55
   3  0.000  0.250  1.000- 290 1.55 431 1.55 469 1.55 386 1.55
   4  0.000  0.250  0.500- 430 1.55 291 1.55 385 1.55 468 1.55
   5  1.000  0.500  1.000- 292 1.55 471 1.55 388 1.55 433 1.55
   6  1.000  0.500  0.500- 470 1.54 432 1.54 293 1.55 387 1.55
   7  1.000  0.750  0.000- 294 1.55 390 1.55 435 1.55 473 1.55
   8  1.000  0.750  0.500- 434 1.55 295 1.55 389 1.55 472 1.55
   9  0.167  0.000  0.000- 296 1.55 392 1.55 445 1.55 437 1.55
  10  0.167  0.000  0.500- 444 1.55 391 1.55 297 1.55 436 1.55
  11  0.167  0.250  1.000- 298 1.55 431 1.55 439 1.55 394 1.55
  12  0.167  0.250  0.500- 299 1.55 438 1.55 430 1.55 393 1.55
  13  0.167  0.500  0.000- 300 1.55 433 1.55 441 1.55 396 1.55
  14  0.166  0.500  0.500- 440 1.54 432 1.54 301 1.55 395 1.55
  15  0.167  0.750  0.000- 302 1.55 443 1.55 398 1.55 435 1.55
  16  0.167  0.750  0.500- 442 1.54 303 1.55 397 1.55 434 1.55
  17  0.333  0.000  1.000- 304 1.55 400 1.55 452 1.55 445 1.55
  18  0.333  0.000  0.500- 305 1.55 451 1.55 399 1.55 444 1.55
  19  0.333  0.250  0.000- 306 1.55 402 1.55 447 1.55 439 1.55
  20  0.333  0.250  0.500- 401 1.54 307 1.55 446 1.55 438 1.55
  21  0.333  0.500  0.000- 308 1.54 448 1.55 441 1.55 404 1.55
  22  0.333  0.500  0.499- 575 1.49 403 1.55 440 1.55 309 1.55
  23  0.333  0.750  0.000- 310 1.55 450 1.55 406 1.55 443 1.55
  24  0.333  0.751  0.500- 449 1.54 405 1.54 311 1.55 442 1.55
  25  0.500  0.000  1.000- 312 1.55 408 1.55 452 1.55 459 1.55
  26  0.500  0.000  0.500- 313 1.55 451 1.55 407 1.55 458 1.55
  27  0.500  0.250  0.000- 410 1.54 314 1.55 447 1.55 454 1.55
  28  0.500  0.251  0.500- 315 1.54 453 1.55 446 1.55 409 1.56
  29  0.500  0.500  0.001- 316 1.55 411 1.55 448 1.55 455 1.55
  30  0.500  0.750  1.000- 317 1.54 413 1.55 457 1.55 450 1.55
  31  0.500  0.750  0.500- 318 1.55 412 1.55 449 1.55 456 1.55
  32  0.667  0.000  1.000- 319 1.55 459 1.55 415 1.55 467 1.55
  33  0.667  0.000  0.500- 320 1.55 458 1.55 414 1.55 466 1.55
  34  0.667  0.250  0.000- 321 1.55 417 1.55 454 1.55 461 1.55
  35  0.667  0.250  0.500- 416 1.54 460 1.54 322 1.55 453 1.55
  36  0.667  0.500  0.000- 323 1.55 455 1.55 419 1.55 463 1.55
  37  0.667  0.498  0.498- 576 1.48 462 1.54 418 1.56 324 1.56
  38  0.667  0.750  0.000- 457 1.55 325 1.55 465 1.55 421 1.55
  39  0.666  0.750  0.500- 456 1.54 326 1.55 420 1.55 464 1.55
  40  0.833  1.000  0.000- 327 1.55 475 1.55 423 1.55 467 1.55
  41  0.833  1.000  0.500- 422 1.55 474 1.55 328 1.55 466 1.55
  42  0.833  0.250  1.000- 329 1.55 469 1.55 461 1.55 425 1.55
  43  0.834  0.250  0.500- 468 1.54 424 1.55 330 1.55 460 1.55
  44  0.833  0.500  0.000- 331 1.55 463 1.55 471 1.55 427 1.55
  45  0.834  0.500  0.500- 462 1.54 470 1.54 332 1.55 426 1.55
  46  0.833  0.750  0.000- 473 1.55 465 1.55 333 1.55 429 1.55
  47  0.833  0.750  0.500- 334 1.55 472 1.55 428 1.55 464 1.55
  48  0.083  0.125  1.000- 335 1.55 392 1.55 431 1.55 384 1.55
  49  0.083  0.125  0.500- 391 1.55 336 1.55 430 1.55 383 1.55
  50  0.083  0.375  1.000- 337 1.55 386 1.55 433 1.55 394 1.55
  51  0.083  0.375  0.500- 385 1.55 338 1.55 393 1.55 432 1.55
  52  0.083  0.625  0.000- 339 1.55 396 1.55 388 1.55 435 1.55
  53  0.083  0.625  0.500- 395 1.54 434 1.55 340 1.55 387 1.55
  54  0.083  0.875  0.000- 341 1.55 437 1.55 398 1.55 390 1.55
  55  0.083  0.875  0.500- 397 1.55 436 1.55 342 1.55 389 1.55
  56  0.250  0.125  0.000- 343 1.55 439 1.55 400 1.55 392 1.55
  57  0.250  0.125  0.500- 438 1.55 344 1.55 399 1.55 391 1.55
  58  0.250  0.375  1.000- 345 1.54 394 1.55 402 1.55 441 1.55
  59  0.250  0.375  0.500- 346 1.55 393 1.55 440 1.55 401 1.55
  60  0.250  0.625  0.000- 404 1.54 347 1.54 443 1.55 396 1.55
  61  0.250  0.625  0.500- 403 1.54 348 1.55 395 1.55 442 1.55
  62  0.250  0.875  1.000- 349 1.55 445 1.55 406 1.55 398 1.55
  63  0.250  0.875  0.500- 405 1.54 444 1.54 350 1.55 397 1.55
  64  0.417  0.125  0.000- 447 1.55 351 1.55 408 1.55 400 1.55
  65  0.417  0.125  0.500- 352 1.55 407 1.55 399 1.55 446 1.55
  66  0.417  0.375  0.001- 448 1.55 353 1.55 410 1.55 402 1.55
  67  0.417  0.377  0.499- 575 1.51 409 1.55 354 1.55 401 1.57
  68  0.417  0.625  0.000- 355 1.54 450 1.55 411 1.55 404 1.55
  69  0.417  0.625  0.499- 574 1.49 403 1.55 449 1.55 356 1.55
  70  0.417  0.875  1.000- 357 1.55 452 1.55 413 1.55 406 1.55
  71  0.417  0.875  0.500- 451 1.55 358 1.55 412 1.55 405 1.55
  72  0.583  0.125  1.000- 454 1.55 408 1.55 359 1.55 415 1.55
  73  0.583  0.125  0.500- 360 1.55 407 1.55 453 1.55 414 1.55
  74  0.583  0.375  0.001- 361 1.55 455 1.55 410 1.55 417 1.55
  75  0.585  0.376  0.498- 576 1.48 416 1.54 409 1.56 362 1.56
  76  0.583  0.625  0.001- 411 1.55 363 1.55 419 1.55 457 1.55
  77  0.581  0.624  0.499- 574 1.51 418 1.55 364 1.55 456 1.57
  78  0.583  0.875  1.000- 365 1.55 459 1.55 413 1.55 421 1.55
  79  0.583  0.875  0.500- 366 1.55 412 1.55 458 1.55 420 1.55
  80  0.750  0.125  1.000- 367 1.55 461 1.55 423 1.55 415 1.55
  81  0.750  0.125  0.500- 460 1.54 422 1.55 368 1.55 414 1.55
  82  0.750  0.375  1.000- 369 1.54 425 1.55 417 1.55 463 1.55
  83  0.751  0.375  0.500- 424 1.54 370 1.55 416 1.55 462 1.55
  84  0.750  0.625  0.000- 419 1.54 371 1.54 427 1.55 465 1.55
  85  0.749  0.624  0.500- 372 1.54 426 1.55 464 1.55 418 1.56
  86  0.750  0.875  0.000- 373 1.55 421 1.55 429 1.55 467 1.55
  87  0.750  0.875  0.500- 420 1.55 374 1.55 466 1.55 428 1.55
  88  0.917  0.125  1.000- 375 1.55 384 1.55 469 1.55 423 1.55
  89  0.917  0.125  0.500- 383 1.55 468 1.55 376 1.55 422 1.55
  90  0.917  0.375  1.000- 377 1.55 386 1.55 425 1.55 471 1.55
  91  0.917  0.375  0.500- 385 1.54 424 1.55 378 1.55 470 1.55
  92  0.917  0.625  0.000- 388 1.55 473 1.55 379 1.55 427 1.55
  93  0.916  0.625  0.500- 380 1.55 472 1.55 387 1.55 426 1.55
  94  0.917  0.875  0.000- 381 1.55 390 1.55 475 1.55 429 1.55
  95  0.917  0.875  0.500- 389 1.55 382 1.55 474 1.55 428 1.55
  96  0.000  0.083  0.333- 524 1.55 476 1.55 383 1.55 564 1.55
  97  0.000  0.083  0.833- 384 1.55 525 1.55 477 1.55 565 1.55
  98  0.000  0.333  0.333- 526 1.55 566 1.55 385 1.55 478 1.55
  99  0.000  0.333  0.833- 386 1.55 527 1.55 479 1.55 567 1.55
 100  1.000  0.583  0.333- 568 1.55 387 1.55 528 1.55 480 1.55
 101  1.000  0.583  0.833- 388 1.55 481 1.55 529 1.55 569 1.55
 102  1.000  0.833  0.333- 530 1.55 389 1.55 482 1.55 570 1.55
 103  1.000  0.833  0.833- 390 1.55 531 1.55 483 1.55 571 1.55
 104  0.167  0.083  0.333- 532 1.55 484 1.55 391 1.55 524 1.55
 105  0.167  0.083  0.833- 392 1.55 533 1.55 485 1.55 525 1.55
 106  0.167  0.333  0.333- 534 1.55 393 1.55 526 1.55 486 1.55
 107  0.167  0.333  0.833- 394 1.55 527 1.55 535 1.55 487 1.55
 108  0.167  0.583  0.333- 536 1.55 528 1.55 395 1.55 488 1.55
 109  0.167  0.583  0.833- 537 1.55 529 1.55 396 1.55 489 1.55
 110  0.167  0.833  0.333- 538 1.55 490 1.55 397 1.55 530 1.55
 111  0.167  0.833  0.833- 539 1.55 398 1.55 491 1.55 531 1.55
 112  0.333  0.083  0.333- 399 1.55 492 1.55 540 1.55 532 1.55
 113  0.333  0.083  0.833- 400 1.55 541 1.55 493 1.55 533 1.55
 114  0.333  0.334  0.333- 542 1.55 534 1.55 401 1.55 494 1.55
 115  0.333  0.333  0.833- 495 1.55 543 1.55 535 1.55 402 1.55
 116  0.333  0.583  0.333- 403 1.54 544 1.55 536 1.55 496 1.55
 117  0.333  0.583  0.834- 545 1.54 404 1.54 537 1.55 497 1.55
 118  0.333  0.833  0.333- 498 1.55 405 1.55 538 1.55 546 1.55
 119  0.333  0.833  0.833- 406 1.55 547 1.55 499 1.55 539 1.55
 120  0.500  0.083  0.333- 500 1.55 407 1.55 540 1.55 548 1.55
 121  0.500  0.083  0.833- 408 1.55 541 1.55 549 1.55 501 1.55
 122  0.500  0.334  0.334- 409 1.54 502 1.54 542 1.55 550 1.55
 123  0.500  0.333  0.834- 503 1.54 410 1.54 543 1.55 551 1.55
 124  0.499  0.584  0.334- 574 1.49 544 1.55 552 1.55 504 1.55
 125  0.500  0.583  0.834- 411 1.54 505 1.55 545 1.55 553 1.55
 126  0.500  0.833  0.333- 412 1.55 506 1.55 546 1.55 554 1.55
 127  0.500  0.833  0.833- 413 1.55 507 1.55 547 1.55 555 1.55
 128  0.667  0.083  0.333- 508 1.55 414 1.55 548 1.55 556 1.55
 129  0.667  0.083  0.833- 415 1.55 549 1.55 509 1.55 557 1.55
 130  0.667  0.333  0.333- 558 1.54 550 1.55 510 1.55 416 1.55
 131  0.667  0.333  0.833- 511 1.54 551 1.55 417 1.55 559 1.55
 132  0.666  0.583  0.334- 552 1.54 418 1.54 512 1.55 560 1.55
 133  0.667  0.583  0.834- 553 1.54 419 1.54 513 1.55 561 1.55
 134  0.667  0.833  0.333- 554 1.55 420 1.55 514 1.55 562 1.55
 135  0.667  0.833  0.833- 555 1.55 421 1.55 563 1.55 515 1.55
 136  0.833  0.083  0.333- 564 1.55 516 1.55 422 1.55 556 1.55
 137  0.833  0.083  0.833- 423 1.55 517 1.55 565 1.55 557 1.55
 138  0.834  0.333  0.333- 566 1.54 558 1.55 424 1.55 518 1.55
 139  0.833  0.333  0.833- 425 1.55 567 1.55 519 1.55 559 1.55
 140  0.833  0.583  0.333- 560 1.55 426 1.55 568 1.55 520 1.55
 141  0.833  0.583  0.833- 569 1.55 521 1.55 561 1.55 427 1.55
 142  0.833  0.833  0.333- 428 1.55 570 1.55 562 1.55 522 1.55
 143  0.833  0.833  0.833- 571 1.55 429 1.55 523 1.55 563 1.55
 144  0.083  0.208  0.333- 484 1.55 430 1.55 526 1.55 476 1.55
 145  0.083  0.208  0.833- 431 1.55 485 1.55 527 1.55 477 1.55
 146  0.083  0.458  0.333- 478 1.55 486 1.55 528 1.55 432 1.55
 147  0.083  0.458  0.833- 433 1.55 487 1.55 479 1.55 529 1.55
 148  0.083  0.708  0.333- 488 1.55 434 1.55 530 1.55 480 1.55
 149  0.083  0.708  0.833- 435 1.55 489 1.55 531 1.55 481 1.55
 150  0.083  0.958  0.333- 490 1.55 524 1.55 436 1.55 482 1.55
 151  0.083  0.958  0.833- 491 1.55 437 1.55 525 1.55 483 1.55
 152  0.250  0.208  0.333- 492 1.55 438 1.55 534 1.55 484 1.55
 153  0.250  0.208  0.833- 439 1.55 493 1.55 535 1.55 485 1.55
 154  0.250  0.458  0.333- 486 1.55 536 1.55 440 1.55 494 1.55
 155  0.250  0.458  0.833- 441 1.55 495 1.55 487 1.55 537 1.55
 156  0.250  0.708  0.333- 496 1.55 442 1.55 538 1.55 488 1.55
 157  0.250  0.708  0.833- 497 1.55 443 1.55 539 1.55 489 1.55
 158  0.250  0.958  0.333- 532 1.55 444 1.55 498 1.55 490 1.55
 159  0.250  0.958  0.833- 445 1.55 499 1.55 533 1.55 491 1.55
 160  0.417  0.209  0.333- 446 1.55 542 1.55 500 1.55 492 1.55
 161  0.417  0.208  0.833- 493 1.55 543 1.55 501 1.55 447 1.55
 162  0.416  0.459  0.334- 575 1.49 544 1.55 502 1.55 494 1.55
 163  0.417  0.458  0.834- 448 1.54 495 1.55 545 1.55 503 1.55
 164  0.416  0.708  0.333- 546 1.55 496 1.55 449 1.55 504 1.55
 165  0.417  0.708  0.833- 450 1.55 505 1.55 497 1.55 547 1.55
 166  0.417  0.958  0.333- 540 1.55 451 1.55 498 1.55 506 1.55
 167  0.417  0.958  0.833- 452 1.55 499 1.55 541 1.55 507 1.55
 168  0.583  0.208  0.333- 550 1.55 453 1.55 500 1.55 508 1.55
 169  0.583  0.208  0.833- 509 1.55 501 1.55 551 1.55 454 1.55
 170  0.585  0.457  0.336- 576 1.48 510 1.55 502 1.56 552 1.56
 171  0.583  0.458  0.834- 455 1.54 511 1.55 503 1.55 553 1.55
 172  0.583  0.708  0.333- 512 1.55 554 1.55 456 1.55 504 1.55
 173  0.583  0.708  0.833- 505 1.55 513 1.55 457 1.55 555 1.55
 174  0.583  0.958  0.333- 458 1.55 548 1.55 514 1.55 506 1.55
 175  0.583  0.958  0.833- 459 1.55 515 1.55 507 1.55 549 1.55
 176  0.750  0.208  0.333- 516 1.54 558 1.55 460 1.55 508 1.55
 177  0.750  0.208  0.833- 461 1.55 559 1.55 509 1.55 517 1.55
 178  0.751  0.458  0.333- 518 1.54 560 1.55 510 1.55 462 1.55
 179  0.750  0.458  0.833- 511 1.54 561 1.55 463 1.55 519 1.55
 180  0.750  0.708  0.333- 464 1.55 512 1.55 520 1.55 562 1.55
 181  0.750  0.708  0.833- 513 1.55 521 1.55 563 1.55 465 1.55
 182  0.750  0.958  0.333- 466 1.55 556 1.55 514 1.55 522 1.55
 183  0.750  0.958  0.833- 467 1.55 515 1.55 523 1.55 557 1.55
 184  0.917  0.208  0.333- 476 1.55 516 1.55 566 1.55 468 1.55
 185  0.917  0.208  0.833- 469 1.55 517 1.55 567 1.55 477 1.55
 186  0.917  0.458  0.333- 478 1.54 518 1.55 568 1.55 470 1.55
 187  0.917  0.458  0.833- 519 1.55 471 1.55 569 1.55 479 1.55
 188  0.917  0.708  0.333- 472 1.55 520 1.55 480 1.55 570 1.55
 189  0.917  0.708  0.833- 481 1.55 473 1.55 571 1.55 521 1.55
 190  0.917  0.958  0.333- 482 1.55 564 1.55 474 1.55 522 1.55
 191  0.917  0.958  0.833- 475 1.55 565 1.55 483 1.55 523 1.55
 192  0.000  0.167  0.167- 335 1.55 375 1.55 476 1.55 290 1.55
 193  0.000  0.167  0.667- 336 1.55 477 1.55 291 1.55 376 1.55
 194  0.000  0.417  0.167- 337 1.55 377 1.55 478 1.55 292 1.55
 195  0.000  0.417  0.667- 378 1.55 479 1.55 338 1.55 293 1.55
 196  1.000  0.667  0.167- 339 1.55 379 1.55 480 1.55 294 1.55
 197  1.000  0.667  0.667- 481 1.55 340 1.55 295 1.55 380 1.55
 198  1.000  0.917  0.167- 341 1.55 288 1.55 482 1.55 381 1.55
 199  1.000  0.917  0.667- 342 1.55 483 1.55 289 1.55 382 1.55
 200  0.167  0.167  0.167- 298 1.55 343 1.55 484 1.55 335 1.55
 201  0.167  0.167  0.667- 485 1.55 344 1.55 299 1.55 336 1.55
 202  0.167  0.417  0.167- 337 1.55 486 1.55 300 1.55 345 1.55
 203  0.167  0.417  0.667- 487 1.55 301 1.55 346 1.55 338 1.55
 204  0.167  0.667  0.167- 488 1.55 347 1.55 302 1.55 339 1.55
 205  0.167  0.667  0.667- 489 1.55 303 1.55 348 1.55 340 1.55
 206  0.167  0.917  0.167- 296 1.55 490 1.55 349 1.55 341 1.55
 207  0.167  0.917  0.667- 350 1.55 491 1.55 297 1.55 342 1.55
 208  0.333  0.167  0.167- 306 1.55 492 1.55 351 1.55 343 1.55
 209  0.333  0.167  0.667- 493 1.55 352 1.55 307 1.55 344 1.55
 210  0.333  0.417  0.166- 494 1.54 345 1.54 308 1.55 353 1.55
 211  0.334  0.417  0.667- 309 1.54 354 1.54 346 1.55 495 1.55
 212  0.333  0.667  0.167- 496 1.54 310 1.55 347 1.55 355 1.55
 213  0.333  0.667  0.666- 348 1.55 311 1.55 356 1.55 497 1.55
 214  0.333  0.917  0.167- 304 1.55 498 1.55 357 1.55 349 1.55
 215  0.333  0.917  0.667- 499 1.55 358 1.55 350 1.55 305 1.55
 216  0.500  0.167  0.167- 314 1.55 500 1.55 351 1.55 359 1.55
 217  0.500  0.167  0.667- 352 1.55 501 1.55 360 1.55 315 1.55
 218  0.500  0.417  0.168- 316 1.54 361 1.55 353 1.55 502 1.56
 219  0.500  0.417  0.669- 572 1.52 503 1.54 354 1.55 362 1.55
 220  0.500  0.667  0.166- 504 1.54 317 1.54 355 1.55 363 1.55
 221  0.500  0.666  0.667- 356 1.54 364 1.54 505 1.55 318 1.55
 222  0.500  0.917  0.167- 312 1.55 506 1.55 357 1.55 365 1.55
 223  0.500  0.917  0.667- 507 1.55 358 1.55 366 1.55 313 1.55
 224  0.667  0.167  0.167- 508 1.55 321 1.55 367 1.55 359 1.55
 225  0.667  0.167  0.667- 509 1.55 322 1.55 360 1.55 368 1.55
 226  0.667  0.416  0.167- 510 1.54 369 1.54 361 1.55 323 1.55
 227  0.667  0.417  0.667- 324 1.54 362 1.54 511 1.55 370 1.55
 228  0.667  0.667  0.167- 512 1.54 363 1.55 371 1.55 325 1.55
 229  0.666  0.666  0.666- 372 1.55 326 1.55 513 1.55 364 1.55
 230  0.667  0.917  0.167- 319 1.55 514 1.55 365 1.55 373 1.55
 231  0.667  0.917  0.667- 515 1.55 374 1.55 366 1.55 320 1.55
 232  0.833  0.167  0.167- 375 1.55 516 1.55 329 1.55 367 1.55
 233  0.833  0.167  0.667- 330 1.55 517 1.55 376 1.55 368 1.55
 234  0.834  0.417  0.167- 377 1.54 518 1.55 369 1.55 331 1.55
 235  0.833  0.417  0.667- 370 1.55 332 1.55 519 1.55 378 1.55
 236  0.833  0.667  0.167- 371 1.55 520 1.55 379 1.55 333 1.55
 237  0.833  0.666  0.667- 521 1.55 380 1.55 334 1.55 372 1.55
 238  0.833  0.917  0.167- 522 1.55 381 1.55 373 1.55 327 1.55
 239  0.833  0.917  0.667- 523 1.55 382 1.55 328 1.55 374 1.55
 240  0.083  0.042  0.167- 296 1.55 335 1.55 524 1.55 288 1.55
 241  0.083  0.042  0.667- 297 1.55 525 1.55 336 1.55 289 1.55
 242  0.083  0.292  0.167- 298 1.55 526 1.55 290 1.55 337 1.55
 243  0.083  0.292  0.667- 527 1.55 299 1.55 338 1.55 291 1.55
 244  0.083  0.542  0.167- 528 1.55 300 1.55 292 1.55 339 1.55
 245  0.083  0.542  0.667- 301 1.55 529 1.55 340 1.55 293 1.55
 246  0.083  0.792  0.167- 302 1.55 341 1.55 530 1.55 294 1.55
 247  0.083  0.792  0.667- 531 1.55 303 1.55 342 1.55 295 1.55
 248  0.250  0.042  0.167- 343 1.55 532 1.55 304 1.55 296 1.55
 249  0.250  0.042  0.667- 533 1.55 305 1.55 344 1.55 297 1.55
 250  0.250  0.292  0.167- 298 1.55 306 1.55 534 1.55 345 1.55
 251  0.250  0.292  0.667- 307 1.55 346 1.55 535 1.55 299 1.55
 252  0.250  0.542  0.167- 536 1.54 300 1.55 347 1.55 308 1.55
 253  0.250  0.542  0.666- 348 1.55 301 1.55 309 1.55 537 1.55
 254  0.250  0.792  0.167- 538 1.55 349 1.55 310 1.55 302 1.55
 255  0.250  0.792  0.667- 539 1.55 311 1.55 303 1.55 350 1.55
 256  0.417  0.042  0.167- 351 1.55 540 1.55 304 1.55 312 1.55
 257  0.417  0.042  0.667- 541 1.55 305 1.55 313 1.55 352 1.55
 258  0.417  0.292  0.167- 542 1.54 353 1.55 314 1.55 306 1.55
 259  0.417  0.292  0.666- 315 1.55 307 1.55 543 1.55 354 1.55
 260  0.417  0.542  0.167- 544 1.54 308 1.55 355 1.55 316 1.55
 261  0.417  0.542  0.669- 572 1.52 545 1.54 309 1.55 356 1.55
 262  0.417  0.792  0.167- 357 1.55 546 1.55 310 1.55 317 1.55
 263  0.417  0.792  0.667- 547 1.55 311 1.55 318 1.55 358 1.55
 264  0.583  0.042  0.167- 359 1.55 319 1.55 548 1.55 312 1.55
 265  0.583  0.042  0.667- 549 1.55 320 1.55 313 1.55 360 1.55
 266  0.583  0.292  0.167- 550 1.54 361 1.55 314 1.55 321 1.55
 267  0.583  0.292  0.666- 315 1.55 322 1.55 551 1.55 362 1.55
 268  0.583  0.541  0.168- 316 1.54 323 1.55 363 1.55 552 1.56
 269  0.583  0.541  0.669- 572 1.52 553 1.54 364 1.55 324 1.55
 270  0.583  0.792  0.167- 365 1.55 325 1.55 554 1.55 317 1.55
 271  0.583  0.792  0.667- 318 1.55 326 1.55 555 1.55 366 1.55
 272  0.750  0.042  0.167- 367 1.55 556 1.55 327 1.55 319 1.55
 273  0.750  0.042  0.667- 557 1.55 368 1.55 320 1.55 328 1.55
 274  0.750  0.292  0.167- 329 1.55 558 1.55 321 1.55 369 1.55
 275  0.750  0.292  0.667- 370 1.55 559 1.55 322 1.55 330 1.55
 276  0.750  0.542  0.167- 560 1.54 323 1.55 371 1.55 331 1.55
 277  0.750  0.541  0.666- 372 1.55 332 1.55 561 1.55 324 1.55
 278  0.750  0.792  0.167- 562 1.55 325 1.55 333 1.55 373 1.55
 279  0.750  0.792  0.667- 563 1.55 334 1.55 326 1.55 374 1.55
 280  0.917  0.042  0.167- 288 1.55 564 1.55 375 1.55 327 1.55
 281  0.917  0.042  0.667- 565 1.55 376 1.55 289 1.55 328 1.55
 282  0.917  0.292  0.167- 290 1.55 329 1.55 566 1.55 377 1.55
 283  0.917  0.292  0.667- 567 1.55 291 1.55 378 1.55 330 1.55
 284  0.917  0.542  0.167- 331 1.55 568 1.55 292 1.55 379 1.55
 285  0.917  0.542  0.667- 569 1.55 332 1.55 380 1.55 293 1.55
 286  0.917  0.792  0.167- 333 1.55 294 1.55 570 1.55 381 1.55
 287  0.917  0.792  0.667- 295 1.55 571 1.55 382 1.55 334 1.55
 288  0.000  1.000  0.125-   1 1.55 280 1.55 198 1.55 240 1.55
 289  1.000  1.000  0.625-   2 1.55 281 1.55 199 1.55 241 1.55
 290  0.000  0.250  0.125- 282 1.55   3 1.55 242 1.55 192 1.55
 291  0.000  0.250  0.625- 283 1.55   4 1.55 193 1.55 243 1.55
 292  1.000  0.500  0.125-   5 1.55 244 1.55 284 1.55 194 1.55
 293  1.000  0.500  0.625- 195 1.55   6 1.55 285 1.55 245 1.55
 294  1.000  0.750  0.125-   7 1.55 286 1.55 196 1.55 246 1.55
 295  1.000  0.750  0.625-   8 1.55 287 1.55 197 1.55 247 1.55
 296  0.167  0.000  0.125- 240 1.55   9 1.55 206 1.55 248 1.55
 297  0.167  0.000  0.625- 241 1.55  10 1.55 207 1.55 249 1.55
 298  0.167  0.250  0.125- 242 1.55  11 1.55 250 1.55 200 1.55
 299  0.167  0.250  0.625-  12 1.55 243 1.55 201 1.55 251 1.55
 300  0.167  0.500  0.125-  13 1.55 244 1.55 252 1.55 202 1.55
 301  0.167  0.500  0.625- 245 1.55 203 1.55  14 1.55 253 1.55
 302  0.167  0.750  0.125- 246 1.55  15 1.55 204 1.55 254 1.55
 303  0.167  0.750  0.625- 247 1.55  16 1.55 205 1.55 255 1.55
 304  0.333  0.000  0.125- 214 1.55  17 1.55 248 1.55 256 1.55
 305  0.333  0.000  0.625-  18 1.55 249 1.55 257 1.55 215 1.55
 306  0.333  0.250  0.125-  19 1.55 208 1.55 250 1.55 258 1.55
 307  0.333  0.250  0.625-  20 1.55 251 1.55 209 1.55 259 1.55
 308  0.333  0.500  0.125-  21 1.54 252 1.55 210 1.55 260 1.55
 309  0.334  0.500  0.625- 211 1.54 253 1.55 261 1.55  22 1.55
 310  0.333  0.750  0.125-  23 1.55 212 1.55 262 1.55 254 1.55
 311  0.333  0.750  0.625- 255 1.55 263 1.55  24 1.55 213 1.55
 312  0.500  0.000  0.125-  25 1.55 222 1.55 264 1.55 256 1.55
 313  0.500  0.000  0.625-  26 1.55 265 1.55 257 1.55 223 1.55
 314  0.500  0.250  0.125-  27 1.55 216 1.55 266 1.55 258 1.55
 315  0.500  0.250  0.625-  28 1.54 267 1.55 259 1.55 217 1.55
 316  0.500  0.500  0.126- 218 1.54 268 1.54  29 1.55 260 1.55
 317  0.500  0.750  0.125- 220 1.54  30 1.54 270 1.55 262 1.55
 318  0.500  0.750  0.625-  31 1.55 271 1.55 263 1.55 221 1.55
 319  0.667  0.000  0.125-  32 1.55 230 1.55 264 1.55 272 1.55
 320  0.667  1.000  0.625-  33 1.55 273 1.55 265 1.55 231 1.55
 321  0.667  0.250  0.125-  34 1.55 224 1.55 274 1.55 266 1.55
 322  0.667  0.250  0.625-  35 1.55 225 1.55 275 1.55 267 1.55
 323  0.667  0.500  0.125-  36 1.55 276 1.55 226 1.55 268 1.55
 324  0.666  0.499  0.625- 227 1.54 269 1.55 277 1.55  37 1.56
 325  0.667  0.750  0.125-  38 1.55 278 1.55 270 1.55 228 1.55
 326  0.667  0.750  0.625-  39 1.55 271 1.55 279 1.55 229 1.55
 327  0.833  1.000  0.125-  40 1.55 280 1.55 272 1.55 238 1.55
 328  0.833  1.000  0.625-  41 1.55 281 1.55 239 1.55 273 1.55
 329  0.833  0.250  0.125- 274 1.55  42 1.55 232 1.55 282 1.55
 330  0.833  0.250  0.625- 233 1.55 283 1.55  43 1.55 275 1.55
 331  0.833  0.500  0.125- 284 1.55  44 1.55 234 1.55 276 1.55
 332  0.833  0.500  0.625-  45 1.55 285 1.55 235 1.55 277 1.55
 333  0.833  0.750  0.125- 286 1.55  46 1.55 278 1.55 236 1.55
 334  0.833  0.750  0.625-  47 1.55 279 1.55 237 1.55 287 1.55
 335  0.083  0.125  0.125- 192 1.55  48 1.55 240 1.55 200 1.55
 336  0.083  0.125  0.625- 193 1.55  49 1.55 241 1.55 201 1.55
 337  0.083  0.375  0.125- 202 1.55 194 1.55  50 1.55 242 1.55
 338  0.083  0.375  0.625- 195 1.55  51 1.55 243 1.55 203 1.55
 339  0.083  0.625  0.125-  52 1.55 196 1.55 244 1.55 204 1.55
 340  0.083  0.625  0.625-  53 1.55 197 1.55 245 1.55 205 1.55
 341  0.083  0.875  0.125- 198 1.55  54 1.55 246 1.55 206 1.55
 342  0.083  0.875  0.625- 199 1.55  55 1.55 247 1.55 207 1.55
 343  0.250  0.125  0.125- 248 1.55  56 1.55 200 1.55 208 1.55
 344  0.250  0.125  0.625-  57 1.55 201 1.55 249 1.55 209 1.55
 345  0.250  0.375  0.125- 210 1.54  58 1.54 250 1.55 202 1.55
 346  0.250  0.375  0.625-  59 1.55 251 1.55 203 1.55 211 1.55
 347  0.250  0.625  0.125-  60 1.54 204 1.55 252 1.55 212 1.55
 348  0.250  0.625  0.625- 213 1.55 253 1.55  61 1.55 205 1.55
 349  0.250  0.875  0.125-  62 1.55 254 1.55 206 1.55 214 1.55
 350  0.250  0.875  0.625- 207 1.55  63 1.55 215 1.55 255 1.55
 351  0.417  0.125  0.125- 256 1.55  64 1.55 216 1.55 208 1.55
 352  0.417  0.125  0.625-  65 1.55 217 1.55 209 1.55 257 1.55
 353  0.417  0.375  0.126- 258 1.55  66 1.55 210 1.55 218 1.55
 354  0.417  0.376  0.625- 211 1.54 219 1.55 259 1.55  67 1.55
 355  0.417  0.625  0.125-  68 1.54 212 1.55 220 1.55 260 1.55
 356  0.417  0.625  0.625- 221 1.54 213 1.55 261 1.55  69 1.55
 357  0.417  0.875  0.125- 262 1.55  70 1.55 222 1.55 214 1.55
 358  0.417  0.875  0.625-  71 1.55 223 1.55 215 1.55 263 1.55
 359  0.583  0.125  0.125- 264 1.55  72 1.55 216 1.55 224 1.55
 360  0.583  0.125  0.625-  73 1.55 225 1.55 217 1.55 265 1.55
 361  0.583  0.375  0.125-  74 1.55 266 1.55 226 1.55 218 1.55
 362  0.584  0.376  0.625- 227 1.54 219 1.55 267 1.55  75 1.56
 363  0.583  0.625  0.126- 228 1.55  76 1.55 220 1.55 268 1.55
 364  0.583  0.624  0.625- 221 1.54 269 1.55 229 1.55  77 1.55
 365  0.583  0.875  0.125- 270 1.55  78 1.55 230 1.55 222 1.55
 366  0.583  0.875  0.625-  79 1.55 231 1.55 223 1.55 271 1.55
 367  0.750  0.125  0.125-  80 1.55 272 1.55 224 1.55 232 1.55
 368  0.750  0.125  0.625- 273 1.55  81 1.55 233 1.55 225 1.55
 369  0.750  0.375  0.125- 226 1.54  82 1.54 234 1.55 274 1.55
 370  0.750  0.375  0.625- 275 1.55 235 1.55  83 1.55 227 1.55
 371  0.750  0.625  0.125-  84 1.54 236 1.55 276 1.55 228 1.55
 372  0.750  0.625  0.625-  85 1.54 277 1.55 229 1.55 237 1.55
 373  0.750  0.875  0.125-  86 1.55 238 1.55 230 1.55 278 1.55
 374  0.750  0.875  0.625-  87 1.55 231 1.55 239 1.55 279 1.55
 375  0.917  0.125  0.125- 232 1.55  88 1.55 280 1.55 192 1.55
 376  0.917  0.125  0.625- 281 1.55  89 1.55 233 1.55 193 1.55
 377  0.917  0.375  0.125- 234 1.54  90 1.55 194 1.55 282 1.55
 378  0.917  0.375  0.625- 195 1.55 283 1.55  91 1.55 235 1.55
 379  0.917  0.625  0.125- 196 1.55  92 1.55 284 1.55 236 1.55
 380  0.917  0.625  0.625-  93 1.55 285 1.55 237 1.55 197 1.55
 381  0.917  0.875  0.125-  94 1.55 286 1.55 238 1.55 198 1.55
 382  0.917  0.875  0.625-  95 1.55 239 1.55 287 1.55 199 1.55
 383  0.000  0.083  0.458-  89 1.55   2 1.55  96 1.55  49 1.55
 384  0.000  0.083  0.958-  88 1.55  97 1.55   1 1.55  48 1.55
 385  0.000  0.333  0.458-  91 1.54  51 1.55   4 1.55  98 1.55
 386  0.000  0.333  0.958-  99 1.55  90 1.55  50 1.55   3 1.55
 387  1.000  0.583  0.458- 100 1.55  53 1.55  93 1.55   6 1.55
 388  1.000  0.583  0.958- 101 1.55  92 1.55  52 1.55   5 1.55
 389  1.000  0.833  0.458-  95 1.55 102 1.55   8 1.55  55 1.55
 390  1.000  0.833  0.958- 103 1.55  94 1.55   7 1.55  54 1.55
 391  0.167  0.083  0.458-  10 1.55  49 1.55 104 1.55  57 1.55
 392  0.167  0.083  0.958- 105 1.55   9 1.55  48 1.55  56 1.55
 393  0.167  0.333  0.458-  51 1.55  12 1.55 106 1.55  59 1.55
 394  0.167  0.333  0.958- 107 1.55  58 1.55  50 1.55  11 1.55
 395  0.166  0.583  0.458-  53 1.54 108 1.55  14 1.55  61 1.55
 396  0.167  0.583  0.958-  52 1.55 109 1.55  13 1.55  60 1.55
 397  0.167  0.833  0.458-  55 1.55 110 1.55  16 1.55  63 1.55
 398  0.167  0.833  0.958- 111 1.55  54 1.55  15 1.55  62 1.55
 399  0.333  0.084  0.458- 112 1.55  57 1.55  18 1.55  65 1.55
 400  0.333  0.083  0.958-  17 1.55 113 1.55  56 1.55  64 1.55
 401  0.333  0.333  0.458-  20 1.54 114 1.55  59 1.55  67 1.57
 402  0.333  0.333  0.958-  19 1.55  58 1.55 115 1.55  66 1.55
 403  0.333  0.583  0.458-  61 1.54 116 1.54  22 1.55  69 1.55
 404  0.333  0.583  0.959- 117 1.54  60 1.54  21 1.55  68 1.55
 405  0.333  0.834  0.458-  24 1.54  63 1.54 118 1.55  71 1.55
 406  0.333  0.833  0.958- 119 1.55  23 1.55  62 1.55  70 1.55
 407  0.500  0.083  0.458- 120 1.55  73 1.55  65 1.55  26 1.55
 408  0.500  0.083  0.958-  72 1.55 121 1.55  64 1.55  25 1.55
 409  0.500  0.335  0.458- 122 1.54  67 1.55  75 1.56  28 1.56
 410  0.500  0.333  0.959- 123 1.54  27 1.54  74 1.55  66 1.55
 411  0.500  0.583  0.959- 125 1.54  76 1.55  68 1.55  29 1.55
 412  0.500  0.833  0.458-  79 1.55 126 1.55  31 1.55  71 1.55
 413  0.500  0.833  0.958-  30 1.55 127 1.55  78 1.55  70 1.55
 414  0.667  0.083  0.458- 128 1.55  33 1.55  81 1.55  73 1.55
 415  0.667  0.083  0.958- 129 1.55  32 1.55  80 1.55  72 1.55
 416  0.668  0.332  0.458-  35 1.54  75 1.54  83 1.55 130 1.55
 417  0.667  0.333  0.958-  34 1.55  82 1.55 131 1.55  74 1.55
 418  0.665  0.582  0.458- 132 1.54  77 1.55  37 1.56  85 1.56
 419  0.667  0.583  0.959- 133 1.54  84 1.54  36 1.55  76 1.55
 420  0.667  0.833  0.458-  87 1.55 134 1.55  39 1.55  79 1.55
 421  0.667  0.833  0.958- 135 1.55  86 1.55  78 1.55  38 1.55
 422  0.833  0.083  0.458-  81 1.55  41 1.55 136 1.55  89 1.55
 423  0.833  0.083  0.958- 137 1.55  40 1.55  80 1.55  88 1.55
 424  0.834  0.333  0.458-  83 1.54  91 1.55  43 1.55 138 1.55
 425  0.833  0.333  0.958- 139 1.55  82 1.55  90 1.55  42 1.55
 426  0.833  0.583  0.458- 140 1.55  45 1.55  93 1.55  85 1.55
 427  0.833  0.583  0.958-  44 1.55  92 1.55  84 1.55 141 1.55
 428  0.833  0.833  0.458- 142 1.55  87 1.55  95 1.55  47 1.55
 429  0.833  0.833  0.958- 143 1.55  46 1.55  86 1.55  94 1.55
 430  0.083  0.208  0.458-   4 1.55  49 1.55 144 1.55  12 1.55
 431  0.083  0.208  0.958- 145 1.55  11 1.55   3 1.55  48 1.55
 432  0.083  0.458  0.458-  14 1.54   6 1.54 146 1.55  51 1.55
 433  0.083  0.458  0.958- 147 1.55  13 1.55   5 1.55  50 1.55
 434  0.083  0.708  0.458-   8 1.55 148 1.55  53 1.55  16 1.55
 435  0.083  0.708  0.958- 149 1.55  52 1.55   7 1.55  15 1.55
 436  0.083  0.958  0.458-   2 1.55  55 1.55 150 1.55  10 1.55
 437  0.083  0.958  0.958- 151 1.55  54 1.55   1 1.55   9 1.55
 438  0.250  0.208  0.458-  57 1.55  20 1.55 152 1.55  12 1.55
 439  0.250  0.208  0.958- 153 1.55  11 1.55  56 1.55  19 1.55
 440  0.249  0.459  0.458-  14 1.54  59 1.55 154 1.55  22 1.55
 441  0.250  0.458  0.958- 155 1.55  13 1.55  58 1.55  21 1.55
 442  0.250  0.709  0.458-  16 1.54 156 1.55  24 1.55  61 1.55
 443  0.250  0.708  0.958-  15 1.55 157 1.55  60 1.55  23 1.55
 444  0.250  0.959  0.458-  63 1.54  10 1.55 158 1.55  18 1.55
 445  0.250  0.958  0.958- 159 1.55  62 1.55   9 1.55  17 1.55
 446  0.417  0.209  0.458- 160 1.55  20 1.55  65 1.55  28 1.55
 447  0.417  0.208  0.958-  64 1.55  19 1.55  27 1.55 161 1.55
 448  0.417  0.458  0.959- 163 1.54  66 1.55  21 1.55  29 1.55
 449  0.416  0.709  0.458-  24 1.54  31 1.55 164 1.55  69 1.55
 450  0.417  0.708  0.958- 165 1.55  23 1.55  68 1.55  30 1.55
 451  0.417  0.958  0.458-  71 1.55  18 1.55 166 1.55  26 1.55
 452  0.417  0.958  0.958- 167 1.55  70 1.55  17 1.55  25 1.55
 453  0.583  0.208  0.458- 168 1.55  35 1.55  73 1.55  28 1.55
 454  0.583  0.208  0.958-  34 1.55  72 1.55  27 1.55 169 1.55
 455  0.583  0.458  0.959- 171 1.54  36 1.55  74 1.55  29 1.55
 456  0.583  0.708  0.459-  39 1.54 172 1.55  31 1.55  77 1.57
 457  0.583  0.708  0.959-  38 1.55  30 1.55 173 1.55  76 1.55
 458  0.583  0.958  0.458-  33 1.55 174 1.55  79 1.55  26 1.55
 459  0.583  0.958  0.958- 175 1.55  32 1.55  78 1.55  25 1.55
 460  0.750  0.208  0.458-  35 1.54  81 1.54 176 1.55  43 1.55
 461  0.750  0.208  0.958- 177 1.55  80 1.55  42 1.55  34 1.55
 462  0.751  0.458  0.458-  45 1.54  37 1.54  83 1.55 178 1.55
 463  0.750  0.458  0.958-  44 1.55  82 1.55 179 1.55  36 1.55
 464  0.750  0.708  0.458- 180 1.55  39 1.55  47 1.55  85 1.55
 465  0.750  0.708  0.958-  46 1.55  38 1.55  84 1.55 181 1.55
 466  0.750  0.958  0.458-  87 1.55  41 1.55 182 1.55  33 1.55
 467  0.750  0.958  0.958- 183 1.55  40 1.55  32 1.55  86 1.55
 468  0.917  0.208  0.458-  43 1.54  89 1.55   4 1.55 184 1.55
 469  0.917  0.208  0.958-  42 1.55 185 1.55  88 1.55   3 1.55
 470  0.917  0.458  0.458-  45 1.54   6 1.54 186 1.55  91 1.55
 471  0.917  0.458  0.958- 187 1.55   5 1.55  44 1.55  90 1.55
 472  0.917  0.708  0.458-  47 1.55 188 1.55  93 1.55   8 1.55
 473  0.917  0.708  0.958-  46 1.55  92 1.55 189 1.55   7 1.55
 474  0.917  0.958  0.458-  41 1.55 190 1.55  95 1.55   2 1.55
 475  0.917  0.958  0.958- 191 1.55  40 1.55  94 1.55   1 1.55
 476  0.000  0.167  0.292- 184 1.55  96 1.55 192 1.55 144 1.55
 477  0.000  0.167  0.792- 193 1.55  97 1.55 185 1.55 145 1.55
 478  0.000  0.417  0.292- 186 1.54 146 1.55 194 1.55  98 1.55
 479  0.000  0.417  0.792- 195 1.55 147 1.55  99 1.55 187 1.55
 480  1.000  0.667  0.292- 196 1.55 188 1.55 100 1.55 148 1.55
 481  1.000  0.667  0.792- 197 1.55 101 1.55 189 1.55 149 1.55
 482  1.000  0.917  0.292- 190 1.55 102 1.55 198 1.55 150 1.55
 483  1.000  0.917  0.792- 199 1.55 103 1.55 191 1.55 151 1.55
 484  0.167  0.167  0.292- 144 1.55 104 1.55 200 1.55 152 1.55
 485  0.167  0.167  0.792- 201 1.55 145 1.55 105 1.55 153 1.55
 486  0.167  0.417  0.292- 154 1.55 146 1.55 202 1.55 106 1.55
 487  0.167  0.417  0.792- 203 1.55 147 1.55 155 1.55 107 1.55
 488  0.167  0.667  0.292- 148 1.55 204 1.55 108 1.55 156 1.55
 489  0.167  0.667  0.792- 205 1.55 149 1.55 109 1.55 157 1.55
 490  0.167  0.917  0.292- 150 1.55 110 1.55 206 1.55 158 1.55
 491  0.167  0.917  0.792- 207 1.55 151 1.55 111 1.55 159 1.55
 492  0.333  0.167  0.292- 112 1.55 208 1.55 152 1.55 160 1.55
 493  0.333  0.167  0.792- 161 1.55 209 1.55 153 1.55 113 1.55
 494  0.333  0.417  0.290- 210 1.54 114 1.55 154 1.55 162 1.55
 495  0.333  0.417  0.792- 115 1.55 155 1.55 163 1.55 211 1.55
 496  0.333  0.667  0.292- 212 1.54 156 1.55 164 1.55 116 1.55
 497  0.333  0.667  0.792- 157 1.55 165 1.55 117 1.55 213 1.55
 498  0.333  0.917  0.292- 118 1.55 214 1.55 158 1.55 166 1.55
 499  0.333  0.917  0.792- 215 1.55 159 1.55 167 1.55 119 1.55
 500  0.500  0.167  0.292- 216 1.55 120 1.55 168 1.55 160 1.55
 501  0.500  0.167  0.792- 169 1.55 217 1.55 161 1.55 121 1.55
 502  0.500  0.417  0.294- 122 1.54 162 1.55 218 1.56 170 1.56
 503  0.500  0.416  0.793- 123 1.54 219 1.54 171 1.55 163 1.55
 504  0.500  0.667  0.290- 220 1.54 172 1.55 164 1.55 124 1.55
 505  0.500  0.667  0.792- 173 1.55 165 1.55 125 1.55 221 1.55
 506  0.500  0.917  0.292- 222 1.55 174 1.55 126 1.55 166 1.55
 507  0.500  0.917  0.792- 223 1.55 127 1.55 175 1.55 167 1.55
 508  0.667  0.167  0.292- 128 1.55 224 1.55 176 1.55 168 1.55
 509  0.667  0.167  0.792- 225 1.55 169 1.55 129 1.55 177 1.55
 510  0.667  0.416  0.291- 226 1.54 170 1.55 178 1.55 130 1.55
 511  0.667  0.417  0.792- 131 1.54 179 1.54 171 1.55 227 1.55
 512  0.667  0.667  0.292- 228 1.54 180 1.55 172 1.55 132 1.55
 513  0.667  0.667  0.792- 173 1.55 181 1.55 133 1.55 229 1.55
 514  0.667  0.917  0.292- 230 1.55 182 1.55 134 1.55 174 1.55
 515  0.667  0.917  0.792- 231 1.55 175 1.55 183 1.55 135 1.55
 516  0.833  0.167  0.292- 176 1.54 136 1.55 232 1.55 184 1.55
 517  0.833  0.167  0.792- 233 1.55 137 1.55 185 1.55 177 1.55
 518  0.834  0.417  0.291- 178 1.54 186 1.55 234 1.55 138 1.55
 519  0.833  0.417  0.792- 187 1.55 235 1.55 139 1.55 179 1.55
 520  0.833  0.667  0.292- 236 1.55 188 1.55 180 1.55 140 1.55
 521  0.833  0.667  0.792- 141 1.55 181 1.55 237 1.55 189 1.55
 522  0.833  0.917  0.292- 238 1.55 182 1.55 190 1.55 142 1.55
 523  0.833  0.917  0.792- 239 1.55 143 1.55 183 1.55 191 1.55
 524  0.083  0.042  0.292-  96 1.55 150 1.55 240 1.55 104 1.55
 525  0.083  0.042  0.792- 241 1.55  97 1.55 151 1.55 105 1.55
 526  0.083  0.292  0.292-  98 1.55 242 1.55 144 1.55 106 1.55
 527  0.083  0.292  0.792- 243 1.55 107 1.55  99 1.55 145 1.55
 528  0.083  0.542  0.292- 108 1.55 244 1.55 100 1.55 146 1.55
 529  0.083  0.542  0.792- 245 1.55 109 1.55 101 1.55 147 1.55
 530  0.083  0.792  0.292- 102 1.55 246 1.55 148 1.55 110 1.55
 531  0.083  0.792  0.792- 247 1.55 103 1.55 149 1.55 111 1.55
 532  0.250  0.042  0.292- 158 1.55 104 1.55 248 1.55 112 1.55
 533  0.250  0.042  0.792- 249 1.55 105 1.55 113 1.55 159 1.55
 534  0.250  0.292  0.292- 106 1.55 152 1.55 250 1.55 114 1.55
 535  0.250  0.292  0.792- 107 1.55 251 1.55 153 1.55 115 1.55
 536  0.250  0.542  0.292- 252 1.54 108 1.55 154 1.55 116 1.55
 537  0.250  0.542  0.792- 109 1.55 155 1.55 117 1.55 253 1.55
 538  0.250  0.792  0.292- 110 1.55 254 1.55 156 1.55 118 1.55
 539  0.250  0.792  0.792- 255 1.55 111 1.55 157 1.55 119 1.55
 540  0.417  0.042  0.292- 166 1.55 256 1.55 112 1.55 120 1.55
 541  0.417  0.042  0.792- 257 1.55 113 1.55 121 1.55 167 1.55
 542  0.417  0.292  0.292- 258 1.54 160 1.55 114 1.55 122 1.55
 543  0.417  0.292  0.792- 115 1.55 161 1.55 123 1.55 259 1.55
 544  0.417  0.542  0.292- 260 1.54 116 1.55 124 1.55 162 1.55
 545  0.416  0.542  0.793- 261 1.54 117 1.54 163 1.55 125 1.55
 546  0.417  0.792  0.292- 164 1.55 262 1.55 118 1.55 126 1.55
 547  0.417  0.792  0.792- 263 1.55 119 1.55 165 1.55 127 1.55
 548  0.583  0.042  0.292- 128 1.55 264 1.55 174 1.55 120 1.55
 549  0.583  0.042  0.792- 265 1.55 129 1.55 175 1.55 121 1.55
 550  0.583  0.292  0.292- 266 1.54 168 1.55 130 1.55 122 1.55
 551  0.583  0.292  0.792- 131 1.55 169 1.55 123 1.55 267 1.55
 552  0.583  0.541  0.294- 132 1.54 124 1.55 268 1.56 170 1.56
 553  0.584  0.542  0.793- 133 1.54 269 1.54 171 1.55 125 1.55
 554  0.583  0.792  0.292- 134 1.55 270 1.55 172 1.55 126 1.55
 555  0.583  0.792  0.792- 135 1.55 271 1.55 127 1.55 173 1.55
 556  0.750  0.042  0.292- 272 1.55 182 1.55 136 1.55 128 1.55
 557  0.750  0.042  0.792- 273 1.55 137 1.55 129 1.55 183 1.55
 558  0.750  0.291  0.292- 130 1.54 274 1.55 176 1.55 138 1.55
 559  0.750  0.292  0.792- 177 1.55 275 1.55 139 1.55 131 1.55
 560  0.750  0.542  0.292- 276 1.54 140 1.55 178 1.55 132 1.55
 561  0.750  0.542  0.792- 179 1.55 141 1.55 133 1.55 277 1.55
 562  0.750  0.792  0.292- 278 1.55 142 1.55 134 1.55 180 1.55
 563  0.750  0.792  0.792- 279 1.55 135 1.55 181 1.55 143 1.55
 564  0.917  0.042  0.292- 136 1.55 280 1.55 190 1.55  96 1.55
 565  0.917  0.042  0.792- 281 1.55 137 1.55 191 1.55  97 1.55
 566  0.917  0.292  0.292- 138 1.54 282 1.55 184 1.55  98 1.55
 567  0.917  0.292  0.792- 283 1.55 139 1.55 185 1.55  99 1.55
 568  0.917  0.542  0.292- 284 1.55 100 1.55 140 1.55 186 1.55
 569  0.917  0.542  0.792- 285 1.55 141 1.55 187 1.55 101 1.55
 570  0.917  0.792  0.292- 142 1.55 286 1.55 188 1.55 102 1.55
 571  0.917  0.792  0.792- 287 1.55 143 1.55 189 1.55 103 1.55
 572  0.500  0.500  0.634- 573 1.09 219 1.52 269 1.52 261 1.52
 573  0.499  0.501  0.546- 572 1.09
 574  0.498  0.589  0.454- 124 1.49  69 1.49  77 1.51
 575  0.410  0.457  0.454- 162 1.49  22 1.49  67 1.51
 576  0.591  0.454  0.455-  75 1.48  37 1.48 170 1.48
 
  LATTYP: Found a simple monoclinic cell.
 ALAT       =    12.3703241348
 B/A-ratio  =     1.2248453018
 C/A-ratio  =     1.4141600350
 COS(beta)  =    -0.0000282295
  
  Lattice vectors:
  
 A1 = (   0.0000000000,  -0.0003492082,  12.3703241299)
 A2 = (  15.1517333984,   0.0000000000,   0.0000000000)
 A3 = (   0.0000000000,  17.4936180115,   0.0000000000)


Analysis of symmetry for initial positions (statically):
=====================================================================
 Subroutine PRICEL returns:
 Original cell was already a primitive cell.
 

 Routine SETGRP: Setting up the symmetry group for a 
 simple monoclinic supercell.


 Subroutine GETGRP returns: Found  1 space group operations
 (whereof  1 operations were pure point group operations)
 out of a pool of  4 trial point group operations.


The static configuration has the point symmetry C_1 .


Analysis of symmetry for dynamics (positions and initial velocities):
=====================================================================
 Subroutine PRICEL returns:
 Original cell was already a primitive cell.
 

 Routine SETGRP: Setting up the symmetry group for a 
 simple monoclinic supercell.


 Subroutine GETGRP returns: Found  1 space group operations
 (whereof  1 operations were pure point group operations)
 out of a pool of  4 trial point group operations.


The dynamic configuration has the point symmetry C_1 .


Analysis of structural, dynamic, and magnetic symmetry:
=====================================================================
 Subroutine PRICEL returns:
 Original cell was already a primitive cell.
 

 Routine SETGRP: Setting up the symmetry group for a 
 simple monoclinic supercell.


 Subroutine GETGRP returns: Found  1 space group operations
 (whereof  1 operations were pure point group operations)
 out of a pool of  4 trial point group operations.


The overall configuration has the point symmetry C_1 .


 Subroutine INISYM returns: Found  1 space group operations
 (whereof  1 operations are pure point group operations),
 and found     1 'primitive' translations


----------------------------------------------------------------------------------------

                                     Primitive cell                                     

  volume of cell :    3278.8612

  direct lattice vectors                    reciprocal lattice vectors
    15.151733398  0.000000000  0.000000000     0.065999049  0.000000000  0.000000000
     0.000000000 17.493618012  0.000000000     0.000000000  0.057163704  0.000001614
     0.000000000 -0.000349208 12.370324130     0.000000000  0.000000000  0.080838626

  length of vectors
    15.151733398 17.493618012 12.370324135     0.065999049  0.057163704  0.080838626

  position of ions in fractional coordinates (direct lattice)
     0.999996387  0.999974389  0.999996887
     0.999988522  0.999943954  0.500012947
     0.000035586  0.249972650  0.999912763
     0.000105374  0.249945137  0.499968052
     0.999996086  0.499998597  0.999989415
     0.999965165  0.499943960  0.499969708
     0.999958710  0.749978244  0.000010429
     0.999885166  0.749972933  0.500029703
     0.166661540  0.000017316  0.000005100
     0.166617391  0.000077753  0.500008985
     0.166662354  0.249998983  0.999952517
     0.166721033  0.250048097  0.499992366
     0.166625338  0.500009913  0.000036001
     0.166078009  0.500020931  0.499916254
     0.166625707  0.750011709  0.000041249
     0.166560782  0.750071069  0.499998229
     0.333345301  0.000049323  0.999979011
     0.333371999  0.000147211  0.500004646
     0.333361870  0.250054789  0.000113309
     0.333304840  0.250139067  0.499944915
     0.333247734  0.500046293  0.000284774
     0.333480964  0.499947411  0.499186526
     0.333313236  0.750034371  0.000045663
     0.332998097  0.750526942  0.499913565
     0.499996815  0.000042441  0.999960681
     0.499997966  0.000078312  0.500003854
     0.500022080  0.249973300  0.000301300
     0.500396883  0.250892901  0.499965196
     0.500040239  0.499984059  0.000581781
     0.499985394  0.750091989  0.999908148
     0.499800486  0.749926026  0.500011603
     0.666645692  0.000007561  0.999993146
     0.666644078  0.000006752  0.500015485
     0.666696967  0.249989332  0.000082688
     0.667182373  0.249574848  0.499950503
     0.666719288  0.499981631  0.000481696
     0.666776629  0.497993973  0.498463334
     0.666631443  0.749952452  0.000128495
     0.666499744  0.749985019  0.499966630
     0.833330773  0.999972268  0.000012757
     0.833368624  0.999919587  0.500009801
     0.833400878  0.249949413  0.999951792
     0.833594333  0.249788553  0.499984934
     0.833357576  0.499967418  0.000067367
     0.833903600  0.499779506  0.499969961
     0.833293142  0.749959264  0.000059622
     0.833100871  0.749729588  0.500032366
     0.083340540  0.124992962  0.999966070
     0.083358863  0.124999401  0.499995464
     0.083328254  0.374987143  0.999895911
     0.083383852  0.375002881  0.499975942
     0.083280002  0.625003929  0.000039339
     0.083182259  0.625037445  0.499992926
     0.083306192  0.874992663  0.000009541
     0.083258440  0.875016490  0.500019192
     0.250018827  0.125035043  0.000007226
     0.249990900  0.125057912  0.499987592
     0.249893552  0.374961957  0.999866345
     0.250052586  0.375221646  0.500002474
     0.249876315  0.625055137  0.000272055
     0.249941913  0.625042435  0.499833998
     0.249988090  0.875024744  0.999999437
     0.249870316  0.875243467  0.499988237
     0.416674900  0.125055392  0.000022831
     0.416829194  0.125318347  0.500003673
     0.416802872  0.375024371  0.000565612
     0.417118457  0.377102084  0.499439268
     0.416574939  0.625052005  0.000314365
     0.416816696  0.624954454  0.499156426
     0.416666738  0.875045670  0.999947909
     0.416607348  0.875094133  0.499995606
     0.583329669  0.125039388  0.999983156
     0.583343102  0.125132463  0.499992513
     0.583358293  0.374954678  0.000505871
     0.585374001  0.375891678  0.498442339
     0.583362682  0.624903409  0.000575694
     0.581428989  0.623621598  0.499419557
     0.583318097  0.875017559  0.999978176
     0.583271745  0.874995041  0.500002625
     0.750006361  0.124976502  0.999988287
     0.750166154  0.124827486  0.499972782
     0.750133007  0.374919760  0.999954996
     0.750717017  0.374600148  0.500051673
     0.750044591  0.624983328  0.000359716
     0.749275386  0.624245238  0.499984909
     0.749975985  0.874964794  0.000034908
     0.749935881  0.874981948  0.500003587
     0.916695645  0.124966004  0.999957198
     0.916765349  0.124898903  0.499985575
     0.916739133  0.374965612  0.999899481
     0.916960029  0.374869233  0.499980186
     0.916622663  0.624976278  0.000016109
     0.916480476  0.624922410  0.500014254
     0.916644404  0.874968794  0.000013129
     0.916587521  0.874893017  0.500018502
     0.000033715  0.083277310  0.333322276
     0.000010546  0.083313421  0.833312727
     0.000121082  0.333285883  0.333275535
     0.000047908  0.333321119  0.833271635
     0.999926494  0.583317027  0.333351165
     0.999956568  0.583319285  0.833355938
     0.999933366  0.833311158  0.333362690
     0.999959614  0.833287933  0.833334190
     0.166675707  0.083371682  0.333323660
     0.166700035  0.083360707  0.833317981
     0.166750025  0.333402265  0.333324151
     0.166697398  0.333356185  0.833236556
     0.166550706  0.583390479  0.333348433
     0.166651269  0.583330516  0.833341931
     0.166603732  0.833406274  0.333345745
     0.166655462  0.833333676  0.833337885
     0.333357823  0.083463272  0.333361433
     0.333345960  0.083410825  0.833297019
     0.333342606  0.333537642  0.333309270
     0.333413488  0.333449244  0.833423615
     0.333223797  0.583395903  0.333439650
     0.333092312  0.583449554  0.834123966
     0.333220574  0.833493715  0.333315494
     0.333321364  0.833344293  0.833306750
     0.500017747  0.083418574  0.333386418
     0.500007881  0.083428672  0.833280676
     0.500119661  0.333691349  0.333648028
     0.500064460  0.333183607  0.834181314
     0.499373795  0.583673733  0.334268615
     0.500003439  0.583368819  0.834044368
     0.499929667  0.833322170  0.333366536
     0.499982561  0.833339495  0.833275581
     0.666706826  0.083320035  0.333328332
     0.666667413  0.083351311  0.833306793
     0.667153777  0.332967566  0.333155822
     0.666727494  0.333338384  0.833427272
     0.666354986  0.583033740  0.333663072
     0.666842703  0.583342959  0.834190139
     0.666604673  0.833317646  0.333368415
     0.666625053  0.833275586  0.833336234
     0.833399653  0.083233201  0.333297635
     0.833322539  0.083301957  0.833322801
     0.833595111  0.333173309  0.333252393
     0.833403834  0.333284872  0.833293157
     0.833249433  0.583214736  0.333404481
     0.833224440  0.583231057  0.833226382
     0.833233951  0.833241377  0.333379688
     0.833268953  0.833265301  0.833332088
     0.083394365  0.208328644  0.333313234
     0.083380150  0.208339509  0.833297478
     0.083283359  0.458332400  0.333289289
     0.083374336  0.458349436  0.833329030
     0.083245705  0.708366079  0.333389776
     0.083318522  0.708308530  0.833345090
     0.083322482  0.958342172  0.333352945
     0.083342440  0.958327267  0.833347351
     0.250010047  0.208404394  0.333376718
     0.250046350  0.208413892  0.833355725
     0.249814730  0.458454503  0.333257363
     0.250032283  0.458384485  0.833395587
     0.249879610  0.708430803  0.333380849
     0.249988287  0.708347975  0.833366594
     0.249970550  0.958447703  0.333357804
     0.250007155  0.958368591  0.833355582
     0.416740850  0.208562912  0.333438527
     0.416663297  0.208462285  0.833315734
     0.416048553  0.458656731  0.334255650
     0.416641525  0.458316227  0.834052560
     0.416439631  0.708470065  0.333280035
     0.416629594  0.708301895  0.833371395
     0.416636101  0.958406632  0.333342550
     0.416660955  0.958386728  0.833292644
     0.583421726  0.208393256  0.333385442
     0.583393901  0.208446700  0.833216339
     0.584972628  0.457489201  0.335613567
     0.583497191  0.458238119  0.834172092
     0.583156229  0.708244342  0.333361728
     0.583288920  0.708220392  0.833441242
     0.583324033  0.958352786  0.333353427
     0.583333319  0.958353444  0.833304582
     0.750216028  0.208152125  0.333289178
     0.750028188  0.208319857  0.833376153
     0.750561095  0.458108010  0.333155138
     0.750016504  0.458274745  0.833455944
     0.749810247  0.708146683  0.333477480
     0.749880866  0.708244915  0.833343671
     0.749981695  0.958304116  0.333378030
     0.749972181  0.958304637  0.833370917
     0.916773608  0.208234028  0.333280776
     0.916686968  0.208305665  0.833296917
     0.916834473  0.458242294  0.333264471
     0.916676932  0.458317558  0.833347140
     0.916559980  0.708283502  0.333421558
     0.916565260  0.708263476  0.833316969
     0.916633800  0.958275408  0.333352491
     0.916629199  0.958295550  0.833348403
     0.000047259  0.166624292  0.166608942
     0.000054047  0.166637039  0.666631009
     0.000039912  0.416631800  0.166561397
     0.000081379  0.416652137  0.666656107
     0.999937401  0.666668823  0.166695424
     0.999909888  0.666627109  0.666668525
     0.999978469  0.916645278  0.166672507
     0.999958372  0.916623029  0.666668546
     0.166668468  0.166681440  0.166652976
     0.166722095  0.166736675  0.666657238
     0.166588688  0.416663440  0.166564812
     0.166775337  0.416743837  0.666642743
     0.166567454  0.666717455  0.166780933
     0.166696294  0.666643527  0.666642012
     0.166639813  0.916709179  0.166677384
     0.166644890  0.916703330  0.666689028
     0.333366546  0.166749950  0.166751214
     0.333412602  0.166880022  0.666641530
     0.332943826  0.416568463  0.166313659
     0.333599949  0.416973043  0.666584042
     0.333227701  0.666744453  0.166795756
     0.333496907  0.666531005  0.666486815
     0.333316835  0.916752899  0.166645101
     0.333336329  0.916732902  0.666653568
     0.500024843  0.166698196  0.166772670
     0.500073707  0.166954272  0.666548829
     0.500330479  0.416909910  0.167836976
     0.500168241  0.416879131  0.668747901
     0.499902052  0.667033161  0.166359189
     0.499841720  0.666354279  0.666558877
     0.499985705  0.916705812  0.166650616
     0.499979931  0.916691898  0.666629027
     0.666709847  0.166643302  0.166688973
     0.666708912  0.166714257  0.666675927
     0.667090678  0.416437012  0.166500156
     0.666759560  0.416606209  0.666798750
     0.666605027  0.666561655  0.167014934
     0.666180756  0.666293122  0.666403810
     0.666646429  0.916678799  0.166684014
     0.666612265  0.916627487  0.666665031
     0.833424215  0.166588137  0.166604260
     0.833400410  0.166607087  0.666670994
     0.833542595  0.416563290  0.166546314
     0.833454747  0.416577757  0.666714237
     0.833296857  0.666625537  0.166851929
     0.833065265  0.666465646  0.666581749
     0.833313811  0.916631314  0.166702438
     0.833275580  0.916592104  0.666678829
     0.083343189  0.041663942  0.166651473
     0.083352841  0.041671067  0.666661145
     0.083379776  0.291653057  0.166590960
     0.083408325  0.291686895  0.666613455
     0.083293988  0.541675594  0.166666853
     0.083344244  0.541673523  0.666694602
     0.083293841  0.791685118  0.166686056
     0.083293573  0.791646456  0.666669036
     0.250005387  0.041722875  0.166645474
     0.250023523  0.041753328  0.666633114
     0.249968740  0.291687612  0.166613155
     0.250118332  0.291842036  0.666613372
     0.249896199  0.541716171  0.166749361
     0.250231490  0.541627110  0.666487231
     0.249949358  0.791731834  0.166666990
     0.249979722  0.791683257  0.666657790
     0.416659983  0.041727497  0.166672304
     0.416687254  0.041805577  0.666614230
     0.416734531  0.291764891  0.166968097
     0.416784802  0.292208927  0.666392004
     0.416522700  0.541753616  0.167072763
     0.416717620  0.541646453  0.668688853
     0.416613992  0.791766123  0.166603042
     0.416635882  0.791616950  0.666622143
     0.583338022  0.041692708  0.166657329
     0.583341575  0.041733277  0.666628744
     0.583410763  0.291661417  0.166889368
     0.583482429  0.292098794  0.666070694
     0.583279999  0.541308856  0.167831337
     0.583208416  0.541417004  0.668746180
     0.583306098  0.791704313  0.166663438
     0.583240296  0.791529500  0.666636694
     0.750007244  0.041636444  0.166629728
     0.750002673  0.041634459  0.666641310
     0.750195971  0.291533404  0.166559822
     0.750124267  0.291599847  0.666675970
     0.750032964  0.541589467  0.166866546
     0.749631061  0.541320745  0.666104192
     0.749945390  0.791605827  0.166743732
     0.749846164  0.791510732  0.666636378
     0.916675641  0.041618735  0.166644796
     0.916663788  0.041610565  0.666665449
     0.916767525  0.291598248  0.166550929
     0.916752250  0.291612446  0.666633763
     0.916655232  0.541640366  0.166680576
     0.916606846  0.541606791  0.666689929
     0.916614117  0.791643364  0.166698477
     0.916556703  0.791569919  0.666651626
     0.000000959  0.999971088  0.124979938
     0.999993484  0.999960864  0.624996665
     0.000060192  0.249963709  0.124891683
     0.000081533  0.249973756  0.624955633
     0.999993886  0.500008991  0.124951056
     0.999993244  0.500000396  0.624988564
     0.999948686  0.750005473  0.124999739
     0.999921891  0.749973228  0.625002755
     0.166656323  0.000027422  0.124975715
     0.166656970  0.000044274  0.624988130
     0.166679322  0.249995950  0.124921560
     0.166758764  0.250076397  0.624965953
     0.166610351  0.500036009  0.124963674
     0.166643377  0.500070028  0.624943029
     0.166597690  0.750033332  0.125011544
     0.166618369  0.750009770  0.624982897
     0.333337178  0.000059225  0.124954671
     0.333359300  0.000098883  0.624970931
     0.333379047  0.250074133  0.125083613
     0.333469778  0.250241239  0.624905813
     0.333237226  0.500033178  0.125030638
     0.333822220  0.500080554  0.624863234
     0.333283327  0.750049130  0.124992134
     0.333265924  0.750029015  0.624928539
     0.499992554  0.000035502  0.124960118
     0.499998752  0.000054137  0.624966831
     0.500028639  0.249999246  0.125201477
     0.500119921  0.250444103  0.624795864
     0.499998872  0.500014247  0.125625882
     0.499968057  0.750137467  0.124667095
     0.499927823  0.749854372  0.624967295
     0.666649196  0.000000383  0.124968300
     0.666642119  0.999993380  0.624978753
     0.666720912  0.249968285  0.125035088
     0.666792770  0.250001829  0.624905445
     0.666714140  0.499905427  0.125380409
     0.665823214  0.499376304  0.624612156
     0.666623099  0.749937647  0.125105616
     0.666506055  0.749798051  0.624920308
     0.833339066  0.999962471  0.124980932
     0.833334819  0.999934541  0.624989166
     0.833449736  0.249910604  0.124886323
     0.833445280  0.249911862  0.624981905
     0.833384405  0.499965784  0.125015069
     0.833376743  0.499878380  0.624939221
     0.833296958  0.749961361  0.125059050
     0.833177460  0.749842353  0.624970376
     0.083349540  0.124984129  0.124953413
     0.083376415  0.125005339  0.624984094
     0.083332312  0.374998155  0.124857869
     0.083425382  0.375036633  0.624973819
     0.083262997  0.625031304  0.125018106
     0.083277303  0.625012978  0.624994552
     0.083296389  0.875005736  0.124996854
     0.083283976  0.874991380  0.625008178
     0.250023546  0.125049128  0.125001843
     0.250058325  0.125110153  0.624972430
     0.249855877  0.374964571  0.124608955
     0.250177262  0.375183850  0.624963421
     0.249868784  0.625074144  0.125122461
     0.250052059  0.624988674  0.624860071
     0.249967033  0.875053276  0.124978784
     0.249955812  0.875076528  0.624989579
     0.416686100  0.125051630  0.125032906
     0.416753761  0.125218489  0.624952938
     0.416765827  0.375098130  0.125580783
     0.417065755  0.375829089  0.624888168
     0.416588691  0.625094369  0.125064311
     0.416854208  0.624621553  0.624848477
     0.416643041  0.875058246  0.124927204
     0.416644708  0.875009332  0.624976149
     0.583333387  0.125018517  0.125000081
     0.583345416  0.125117395  0.624963744
     0.583436761  0.375001843  0.125422308
     0.583518246  0.375929863  0.624594662
     0.583274299  0.624900275  0.125599286
     0.582706505  0.624293437  0.624868698
     0.583327459  0.875017859  0.124971604
     0.583283449  0.874938856  0.624986358
     0.750030457  0.124962456  0.124963061
     0.750053256  0.124961614  0.624976448
     0.750251620  0.374870145  0.124760125
     0.750230349  0.374876278  0.625064131
     0.750009655  0.624971379  0.125255128
     0.749590032  0.624674141  0.624814782
     0.749975989  0.874968986  0.125032081
     0.749924722  0.874916868  0.624986535
     0.916718846  0.124943224  0.124934941
     0.916723884  0.124934140  0.624983129
     0.916784210  0.374952175  0.124836850
     0.916814046  0.374945665  0.624995167
     0.916623512  0.624994324  0.125031305
     0.916536033  0.624938498  0.624990683
     0.916645122  0.874972303  0.125006196
     0.916608471  0.874922511  0.624996923
     0.000044519  0.083265759  0.458334109
     0.000012307  0.083307039  0.958295524
     0.000173161  0.333275644  0.458308777
     0.000034277  0.333321276  0.958224536
     0.999866711  0.583331200  0.458341206
     0.999960797  0.583347815  0.958333365
     0.999915702  0.833305522  0.458358135
     0.999967321  0.833308965  0.958329747
     0.166664886  0.083359789  0.458328735
     0.166683625  0.083344825  0.958305715
     0.166778686  0.333407026  0.458356384
     0.166646854  0.333319209  0.958132500
     0.166426729  0.583424297  0.458335013
     0.166610206  0.583358240  0.958358116
     0.166562245  0.833427977  0.458347623
     0.166636891  0.833337902  0.958320226
     0.333408769  0.083520570  0.458336566
     0.333348687  0.083375642  0.958297175
     0.333461679  0.333293775  0.458472727
     0.333403620  0.333389077  0.958489845
     0.333117892  0.583459689  0.458268482
     0.333093542  0.583455169  0.958721046
     0.333043112  0.833659763  0.458352688
     0.333317744  0.833353297  0.958283465
     0.500031484  0.083442402  0.458369293
     0.499996175  0.083390059  0.958286198
     0.500466773  0.334868338  0.458076744
     0.500057774  0.333169830  0.958872211
     0.500002415  0.583361490  0.958842445
     0.499935397  0.833309104  0.458383515
     0.499994216  0.833363302  0.958205077
     0.666695410  0.083337547  0.458320719
     0.666652811  0.083336541  0.958293008
     0.667647063  0.332384335  0.458342747
     0.666697916  0.333312932  0.958466773
     0.665355826  0.582206784  0.458086745
     0.666854738  0.583370862  0.958896634
     0.666671483  0.833337461  0.458367389
     0.666645057  0.833294728  0.958339417
     0.833429536  0.083189528  0.458311488
     0.833334445  0.083301434  0.958303894
     0.833784909  0.333075613  0.458319340
     0.833415909  0.333284482  0.958207804
     0.833168817  0.583124452  0.458357249
     0.833281601  0.583297770  0.958346132
     0.833193762  0.833184417  0.458356267
     0.833306152  0.833292021  0.958334561
     0.083414187  0.208327879  0.458327191
     0.083366133  0.208320209  0.958261665
     0.083077374  0.458398269  0.458346739
     0.083339069  0.458351888  0.958281439
     0.083207840  0.708381154  0.458374888
     0.083306926  0.708331344  0.958334596
     0.083307989  0.958335410  0.458352101
     0.083335867  0.958324029  0.958330724
     0.250037472  0.208334885  0.458376206
     0.250032055  0.208373609  0.958348088
     0.249002044  0.458735779  0.458485178
     0.249971521  0.458362229  0.958359571
     0.249808375  0.708503001  0.458358184
     0.249954822  0.708359957  0.958382640
     0.249927139  0.958508815  0.458356127
     0.250000126  0.958360020  0.958336208
     0.416858218  0.208814190  0.458350085
     0.416669961  0.208381595  0.958385778
     0.416640596  0.458325374  0.958844057
     0.415767173  0.708961097  0.458495551
     0.416624503  0.708345408  0.958351861
     0.416647602  0.958411907  0.458344114
     0.416657231  0.958373809  0.958269595
     0.583481041  0.208499928  0.458338141
     0.583358809  0.208380707  0.958335478
     0.583434634  0.458280610  0.958903554
     0.583434941  0.708295688  0.458500157
     0.583331858  0.708264288  0.958506820
     0.583325239  0.958342988  0.458351184
     0.583335832  0.958348546  0.958290468
     0.750301248  0.208001304  0.458311839
     0.750021623  0.208310396  0.958347451
     0.751350270  0.458020471  0.458342777
[...]
 196       0.004     0.000    -0.007       0.559
 197       0.005     0.002    -0.008       0.395
 198      -0.001    -0.001     0.002       0.114
 199      -0.002    -0.001     0.003       0.111
 200       0.004    -0.004     0.005      -1.584
 201       0.005     0.003    -0.006       0.324
 202       0.019    -0.002     0.025      -0.874
 203      -0.019     0.014     0.019       1.741
 204       0.008    -0.006     0.011      -1.334
 205       0.010    -0.009     0.012      -1.597
 206       0.003     0.002    -0.003       0.393
 207       0.004     0.002    -0.004       0.521
 208       0.002    -0.002    -0.014       0.292
 209       0.010     0.006    -0.011       0.338
 210      -0.197    -0.192    -0.334      -0.016
 211       0.086    -0.006     0.097      -0.944
 212       0.020    -0.014     0.021      -1.607
 213       0.028     0.023    -0.031       0.158
 214      -0.006     0.003     0.006       1.377
 215       0.007     0.005    -0.007       0.344
 216       0.007     0.003    -0.009       0.518
 217      -0.002     0.001    -0.023      -0.110
 218      -0.031     0.027     0.033       1.779
 219      -0.297    -0.229    -0.452      -0.149
 220      -0.191    -0.186    -0.326      -0.017
 221       0.086    -0.005     0.097      -0.939
 222      -0.007     0.004     0.008       1.279
 223       0.006     0.002    -0.012       0.351
 224       0.004     0.003    -0.005       0.340
 225       0.003     0.002    -0.009       0.108
 226       0.013     0.011    -0.016       0.144
 227       0.018     0.016    -0.028       0.057
 228       0.013     0.010    -0.022       0.145
 229       0.060     0.020     0.067      -0.596
 230      -0.005     0.003     0.005       1.472
 231       0.005     0.004    -0.007       0.135
 232      -0.002     0.000     0.002       1.063
 233       0.003    -0.000    -0.003       0.912
 234       0.007     0.002    -0.008       0.622
 235       0.008     0.004    -0.012       0.300
 236       0.007     0.002    -0.009       0.516
 237       0.001    -0.001    -0.022       0.075
 238       0.001     0.000    -0.004       0.340
 239       0.003     0.001    -0.004       0.516
 240      -0.002     0.001     0.002       1.215
 241      -0.003     0.000     0.003       1.138
 242      -0.005     0.004     0.006       1.489
 243       0.004     0.003    -0.010       0.124
 244       0.005    -0.001    -0.014       0.398
 245      -0.010     0.007     0.013       1.281
 246       0.003     0.002    -0.004       0.322
 247       0.004     0.002    -0.005       0.428
 248       0.002     0.000    -0.006       0.345
 249       0.005     0.003    -0.005       0.309
 250       0.017    -0.004     0.021      -0.996
 251       0.017     0.013    -0.018       0.201
 252       0.020    -0.014     0.022      -1.581
 253       0.028     0.023    -0.032       0.164
 254      -0.001     0.001    -0.014      -0.111
 255       0.008    -0.007     0.010      -1.489
 256       0.006     0.002    -0.007       0.583
 257       0.003     0.000    -0.011       0.266
 258       0.013     0.010    -0.022       0.157
 259       0.061     0.021     0.069      -0.581
 260       0.088     0.052     0.109      -0.335
 261       0.090    -0.035     0.110      -1.137
 262       0.019    -0.003     0.023      -0.946
 263       0.018     0.014    -0.019       0.211
 264      -0.005     0.002     0.005       1.412
 265       0.002    -0.000    -0.010       0.196
 266      -0.011     0.010     0.013       1.597
 267       0.006     0.003    -0.034       0.077
 268      -0.031     0.027     0.032       1.798
 269      -0.294    -0.227    -0.453      -0.148
 270       0.017    -0.004     0.022      -0.958
 271       0.016     0.012    -0.019       0.228
 272       0.003     0.001    -0.003       0.435
 273       0.003     0.001    -0.004       0.489
 274       0.005     0.003    -0.006       0.241
 275       0.005     0.004    -0.010       0.114
 276      -0.012     0.009     0.015       1.370
 277       0.006     0.004    -0.036       0.059
 278      -0.001     0.000    -0.013      -0.114
 279       0.009     0.007    -0.009       0.205
 280      -0.002    -0.000     0.002       0.785
 281      -0.002    -0.000     0.003       0.653
 282       0.004     0.001    -0.004       0.644
 283       0.003     0.001    -0.006       0.387
 284       0.006     0.000    -0.009       0.657
 285       0.007     0.003    -0.012       0.380
 286       0.003     0.001    -0.003       0.504
 287       0.003     0.001    -0.005       0.404
 288       0.002    -0.000    -0.002       1.021
 289      -0.002    -0.001     0.003       0.604
 290      -0.002    -0.000    -0.008      -0.211
 291       0.002    -0.000    -0.007       0.304
 292       0.004    -0.002    -0.009       0.677
 293      -0.008    -0.003    -0.024      -0.178
 294       0.002     0.000    -0.004       0.361
 295       0.004     0.002    -0.006       0.416
 296       0.002     0.001    -0.003       0.348
 297       0.003    -0.002     0.005      -1.041
 298      -0.002    -0.000    -0.016      -0.149
 299       0.005     0.004    -0.013       0.133
 300      -0.003     0.001    -0.022      -0.175
 301      -0.020    -0.016    -0.062      -0.062
 302       0.002    -0.000    -0.007       0.291
 303       0.005     0.004    -0.011       0.153
 304       0.004     0.001    -0.006       0.498
 305       0.004     0.002    -0.010       0.211
 306       0.006     0.003    -0.013       0.258
 307       0.011     0.006    -0.034       0.151
 308       0.028    -0.010     0.041      -0.946
 309      -0.558    -0.543    -0.810      -0.018
 310      -0.003     0.001    -0.021      -0.198
 311      -0.020    -0.018    -0.061      -0.040
 312      -0.003     0.002    -0.011      -0.413
 313       0.005     0.003    -0.010       0.223
 314       0.004     0.000    -0.018       0.185
 315      -0.056    -0.050    -0.094      -0.054
 316       0.036     0.000     0.058      -0.630
 317      -0.103    -0.091    -0.173      -0.065
 318      -0.036    -0.017    -0.089      -0.209
 319       0.003     0.000    -0.005       0.389
 320       0.003     0.002    -0.007       0.196
 321      -0.001     0.000    -0.012      -0.147
 322       0.008     0.007    -0.013       0.062
 323      -0.005     0.001    -0.035      -0.160
 324       0.041    -0.032     0.045      -1.612
 325       0.006     0.004    -0.012       0.153
 326       0.011     0.007    -0.032       0.126
 327       0.002     0.000    -0.002       0.567
 328       0.002    -0.001    -0.005       0.624
 329       0.002     0.000    -0.004       0.442
 330       0.004     0.002    -0.006       0.435
 331      -0.004     0.003    -0.014      -0.462
 332       0.003    -0.001    -0.023       0.146
 333       0.002     0.000    -0.006       0.268
 334       0.006     0.005    -0.009       0.092
 335       0.001     0.000    -0.004       0.252
 336       0.003     0.001    -0.004       0.593
 337      -0.007    -0.002    -0.021      -0.210
 338       0.007     0.004    -0.014       0.263
 339       0.002     0.000    -0.008       0.218
 340       0.007     0.004    -0.013       0.182
 341       0.001    -0.000    -0.003       0.609
 342       0.003    -0.000    -0.004       0.876
 343       0.004     0.002    -0.005       0.486
 344      -0.002    -0.001    -0.016      -0.065
 345      -0.107    -0.096    -0.178      -0.062
 346      -0.035    -0.017    -0.089      -0.202
 347       0.011    -0.000    -0.011       1.011
 348       0.026    -0.002     0.048      -0.584
 349       0.002     0.000    -0.007       0.264
 350      -0.009    -0.007    -0.022      -0.073
 351       0.003    -0.002    -0.009       0.439
 352       0.008     0.005    -0.012       0.204
 353      -0.014    -0.012    -0.059      -0.047
 354      -0.320    -0.272    -0.490      -0.099
 355       0.028    -0.010     0.041      -0.919
 356      -0.547    -0.531    -0.797      -0.019
 357      -0.007    -0.002    -0.022      -0.224
 358       0.008     0.003    -0.015       0.310
 359      -0.004    -0.000    -0.010      -0.361
 360       0.006     0.004    -0.010       0.157
 361      -0.003     0.000    -0.034      -0.089
 362       0.045    -0.028     0.050      -1.464
 363      -0.015    -0.012    -0.059      -0.045
 364      -0.315    -0.266    -0.483      -0.102
 365      -0.004     0.001    -0.017      -0.267
 366       0.007     0.004    -0.014       0.272
 367       0.002     0.000    -0.003       0.338
 368       0.004     0.002    -0.004       0.555
 369       0.007     0.002    -0.008       0.531
 370       0.012    -0.012     0.014      -1.776
 371       0.005     0.002    -0.017       0.214
 372      -0.051    -0.048    -0.090      -0.034
 373       0.003     0.002    -0.004       0.271
 374      -0.004    -0.003    -0.016      -0.072
 375       0.001    -0.001    -0.002       1.430
 376      -0.002    -0.002     0.003       0.045
 377       0.003    -0.002    -0.007       0.655
 378       0.006     0.003    -0.009       0.255
 379      -0.004    -0.000    -0.011      -0.400
 380       0.008     0.005    -0.010       0.247
 381       0.002    -0.000    -0.002       0.811
 382       0.003    -0.001    -0.004       0.812
 383      -0.005    -0.000    -0.007      -0.603
 384       0.001     0.000    -0.001       0.702
 385       0.004     0.001    -0.016       0.160
 386       0.003    -0.002    -0.004       1.200
 387       0.013    -0.009     0.014      -1.613
 388       0.005    -0.002    -0.005       1.311
 389       0.004    -0.000    -0.005       0.982
 390       0.001     0.000    -0.001       0.263
 391      -0.006    -0.002    -0.026      -0.159
 392       0.002     0.000    -0.002       0.669
 393      -0.085    -0.084    -0.166      -0.007
 394      -0.009    -0.000    -0.018      -0.468
 395       0.029    -0.007     0.041      -0.880
 396       0.006    -0.002    -0.008       1.066
 397       0.010    -0.002     0.013      -0.852
 398       0.001    -0.001    -0.002       1.049
 399      -0.009    -0.009    -0.027      -0.033
 400       0.004    -0.001    -0.004       1.141
 401      -2.256    -2.239    -3.149      -0.005
 402      -0.020    -0.014    -0.036      -0.159
 403      -0.179    -0.026     0.180       0.848
 404       0.009     0.008    -0.016       0.098
 405      -0.106    -0.100    -0.181      -0.033
 406      -0.004    -0.002     0.005       0.335
 407       0.007     0.006    -0.013       0.064
 408       0.004    -0.001    -0.005       1.206
 409      -0.339    -0.298    -0.511      -0.081
 410      -0.006    -0.002    -0.023      -0.203
 411       0.011     0.008    -0.025       0.110
 412      -0.082    -0.081    -0.163      -0.005
 413      -0.010     0.000    -0.019      -0.533
 414       0.002     0.001    -0.009       0.186
 415       0.003     0.000    -0.003       0.799
 416      -0.024     0.020     0.024       1.825
 417       0.004    -0.003    -0.008       0.749
 418      -0.320    -0.282    -0.496      -0.077
 419      -0.008    -0.002    -0.024      -0.259
 420      -0.167    -0.160    -0.262      -0.025
 421      -0.003    -0.002     0.004       0.357
 422       0.003    -0.001    -0.006       0.679
 423       0.001     0.000    -0.002       0.482
 424       0.006     0.003    -0.013       0.192
 425      -0.003    -0.001     0.004       0.390
 426       0.015     0.014    -0.017       0.084
 427      -0.003    -0.003     0.007       0.041
 428      -0.005    -0.002    -0.016      -0.197
 429       0.001    -0.001    -0.002       0.818
 430      -0.002     0.001    -0.017      -0.190
 431       0.002    -0.001    -0.003       0.915
 432      -0.101    -0.094    -0.181      -0.042
 433      -0.004    -0.003     0.007       0.213
 434       0.008    -0.006     0.011      -1.326
 435      -0.003    -0.002     0.003       0.427
 436      -0.009    -0.003    -0.010      -0.619
 437       0.001     0.000    -0.002       0.268
 438      -0.171    -0.164    -0.267      -0.027
 439      -0.003    -0.002     0.004       0.340
 440      -1.793    -1.766    -2.557      -0.011
 441       0.008     0.002    -0.017       0.320
 442       0.027    -0.006     0.040      -0.823
 443       0.004    -0.000    -0.007       0.648
 444      -0.029    -0.028    -0.045      -0.015
 445       0.003     0.000    -0.003       0.843
 446      -0.007    -0.006    -0.052      -0.016
 447      -0.004     0.004    -0.007      -1.287
 448       0.011     0.008    -0.025       0.122
 449      -1.783    -1.757    -2.528      -0.010
 450       0.007     0.002    -0.017       0.245
 451       0.003     0.002    -0.020       0.049
 452       0.004    -0.002    -0.006       1.030
 453       0.008     0.007    -0.019       0.087
 454      -0.002    -0.002     0.005       0.157
 455       0.010     0.008    -0.017       0.163
 456      -2.238    -2.221    -3.109      -0.005
 457      -0.019    -0.013    -0.035      -0.163
 458       0.003     0.003    -0.018       0.031
 459       0.004    -0.002    -0.005       1.048
 460       0.006     0.003    -0.008       0.360
 461       0.001    -0.001    -0.002       1.100
 462       0.024     0.022    -0.029       0.081
 463       0.005    -0.004    -0.008       1.176
 464      -0.007    -0.005    -0.050      -0.027
 465       0.004    -0.003    -0.006       1.023
 466      -0.025    -0.023    -0.042      -0.051
 467       0.002     0.001    -0.002       0.625
 468       0.004    -0.001    -0.005       1.198
 469       0.000     0.000    -0.002       0.152
 470       0.003     0.001    -0.027       0.074
 471       0.005    -0.003    -0.006       1.268
 472       0.003     0.001    -0.013       0.150
 473      -0.003    -0.001     0.003       0.610
 474      -0.004    -0.000    -0.007      -0.638
 475       0.001    -0.000    -0.002       0.669
 476      -0.002     0.001    -0.008      -0.405
 477       0.001     0.000    -0.002       0.624
 478      -0.005    -0.002    -0.024      -0.145
 479      -0.006     0.000     0.006       0.987
 480       0.004     0.003    -0.009       0.132
 481       0.005     0.000    -0.005       0.823
 482      -0.002     0.002    -0.003      -1.837
 483       0.001    -0.001    -0.001       1.694
 484      -0.003    -0.002    -0.019      -0.096
 485       0.003     0.001    -0.004       0.398
 486      -0.092    -0.091    -0.182      -0.009
 487      -0.013    -0.005    -0.030      -0.268
 488       0.011    -0.003    -0.013       1.104
 489       0.007     0.003    -0.008       0.496
 490       0.003     0.000    -0.006       0.520
 491       0.002     0.001    -0.003       0.330
 492       0.007     0.005    -0.014       0.102
 493       0.005     0.000    -0.009       0.542
 494      -1.739    -1.708    -2.485      -0.013
 495      -0.058    -0.053    -0.118      -0.043
 496      -0.052     0.001    -0.090      -0.582
 497      -0.007    -0.006    -0.040      -0.038
 498      -0.006    -0.005    -0.025      -0.042
 499       0.005     0.000    -0.006       0.745
 500      -0.006    -0.001    -0.023      -0.241
 501       0.006     0.001    -0.008       0.636
 502      -0.576    -0.562    -0.826      -0.017
 503       0.051    -0.001     0.055      -0.940
 504      -1.710    -1.680    -2.440      -0.012
 505      -0.056    -0.051    -0.116      -0.042
 506      -0.016    -0.014    -0.047      -0.050
 507       0.005    -0.003    -0.008       1.002
 508      -0.003    -0.001    -0.014      -0.179
 509       0.004     0.002    -0.005       0.432
 510       0.009     0.006    -0.043       0.055
 511      -0.013     0.011     0.014       1.667
 512      -0.034    -0.020    -0.087      -0.156
 513       0.008     0.002    -0.021       0.257
 514      -0.003    -0.002    -0.020      -0.020
 515       0.004     0.001    -0.005       0.584
 516       0.003    -0.001    -0.004       1.125
 517       0.001    -0.000    -0.002       0.588
 518       0.006     0.003    -0.015       0.203
 519       0.007     0.001    -0.007       0.810
 520       0.003     0.003    -0.018       0.050
 521       0.006     0.001    -0.008       0.620
 522       0.003     0.001    -0.004       0.576
 523       0.002     0.001    -0.003       0.311
 524       0.002    -0.001    -0.005       0.633
 525       0.001    -0.000    -0.003       0.413
 526      -0.020    -0.019    -0.049      -0.026
 527       0.003    -0.003    -0.006       0.934
 528      -0.006    -0.003    -0.027      -0.091
 529       0.008     0.001    -0.008       0.843
 530       0.004     0.001    -0.006       0.520
 531       0.002     0.001    -0.003       0.355
 532       0.002     0.002    -0.008       0.093
 533       0.003     0.000    -0.005       0.546
 534      -0.084    -0.081    -0.166      -0.014
 535      -0.014    -0.008    -0.030      -0.174
 536      -0.053     0.000    -0.090      -0.599
 537      -0.009    -0.005    -0.041      -0.092
 538      -0.006    -0.001    -0.024      -0.218
 539       0.005     0.003    -0.007       0.386
 540      -0.003    -0.000    -0.017      -0.138
 541       0.004    -0.000    -0.007       0.654
 542      -0.037    -0.022    -0.089      -0.168
 543       0.008     0.002    -0.021       0.274
 544       0.166    -0.046    -0.215       0.986
 545       0.025     0.020    -0.037       0.124
 546      -0.094    -0.092    -0.182      -0.011
 547      -0.013    -0.006    -0.029      -0.252
 548      -0.001     0.001    -0.014      -0.151
 549       0.004     0.000    -0.006       0.568
 550      -0.057    -0.053    -0.109      -0.035
 551       0.010    -0.008     0.013      -1.346
 552      -0.587    -0.570    -0.834      -0.019
 553       0.050    -0.002     0.053      -0.987
 554      -0.083    -0.081    -0.164      -0.017
 555      -0.014    -0.008    -0.030      -0.209
 556       0.002    -0.001    -0.006       0.384
 557       0.002     0.001    -0.003       0.303
 558       0.005     0.003    -0.012       0.160
 559       0.005     0.003    -0.005       0.373
 560      -0.059    -0.058    -0.114      -0.012
 561       0.009    -0.008     0.016      -1.089
 562       0.007     0.005    -0.012       0.155
 563       0.003     0.001    -0.008       0.278
 564       0.002    -0.001    -0.003       1.053
 565       0.002    -0.000    -0.002       1.061
 566      -0.002     0.002    -0.010      -0.364
 567       0.003     0.000    -0.004       0.590
 568      -0.002     0.001    -0.018      -0.178
 569      -0.006     0.001     0.008       0.955
 570       0.003     0.001    -0.006       0.432
 571       0.002     0.001    -0.003       0.528
 572       0.650     0.562     0.767      -0.114
 573      -0.241    -0.036     0.400       0.512
 574     -14.802   -14.756   -25.709      -0.002
 575     -14.996   -14.950   -26.141      -0.002
 576       0.609     0.529     0.726      -0.110
 ---------------------------------------------------------------------



--------------------------------------------------------------------------------------------------------


     LOOP+:  cpu time 1237.7974: real time 1242.9095
    4ORBIT:  cpu time    0.0000: real time    0.0000

 total amount of memory used by VASP MPI-rank0   238698. kBytes
=======================================================================

   base      :      30000. kBytes
   nonlr-proj:       9221. kBytes
   fftplans  :      15014. kBytes
   grid      :      46644. kBytes
   one-center:        294. kBytes
   wavefun   :     137525. kBytes
 
  
  
 General timing and accounting informations for this job:
 ========================================================
  
                  Total CPU time used (sec):     1268.382
                            User time (sec):     1266.128
                          System time (sec):        2.254
                         Elapsed time (sec):     1274.469
  
                   Maximum memory used (kb):      431728.
                   Average memory used (kb):          N/A
  
                          Minor page faults:       705182
                          Major page faults:           24
                 Voluntary context switches:        13176
