 vasp.6.2.0 18Jan21 (build Apr 30 2021 19:00:08) gamma-only                     
  
 executed on             LinuxIFC date 2022.12.30  16:22:47
 running on   24 total cores
 distrk:  each k-point on   24 cores,    1 groups
 distr:  one band on NCORE=   6 cores,    4 groups


--------------------------------------------------------------------------------------------------------


 INCAR:
   SYSTEM = Diamond
   PREC = Normal
   ISTART = 0
   ICHARG = 11
   ISPIN = 2
   MAGMOM = 572*0.0 1*2.0 2*2.0 1*3
   NPAR = 4
   NELECT = 2303
   LHYPERFINE = T
   LEFG = T
   ENCUT = 700
   NELM = 1000
   NELMIN = 4
   EDIFF = 1E-06
   LREAL = Auto
   ALGO = Normal
   EDIFFG = -1E-02
   NSW = 0
   IBRION = 2
   ISIF = 2
   ISYM = 2
   POTIM = 0.5
   ISMEAR = 0
   SIGMA = 0.05
   NEDOS = 1000
   LWAVE = F
   LCHARG = F
   LVHAR = F
   LELF = F

 POTCAR:    PAW_PBE C 08Apr2002                   
 POTCAR:    PAW_PBE H 15Jun2001                   
 POTCAR:    PAW_PBE C 08Apr2002                   
 POTCAR:    PAW_PBE N 08Apr2002                   
 POTCAR:    PAW_PBE C 08Apr2002                   
   VRHFIN =C: s2p2                                                                                  
   LEXCH  = PE                                                                                      
   EATOM  =   147.1560 eV,   10.8157 Ry                                                             
                                                                                                    
   TITEL  = PAW_PBE C 08Apr2002                                                                     
   LULTRA =        F    use ultrasoft PP ?                                                          
   IUNSCR =        1    unscreen: 0-lin 1-nonlin 2-no                                               
   RPACOR =    1.200    partial core radius                                                         
   POMASS =   12.011; ZVAL   =    4.000    mass and valenz                                          
   RCORE  =    1.500    outmost cutoff radius                                                       
   RWIGS  =    1.630; RWIGS  =    0.863    wigner-seitz radius (au A)                               
   ENMAX  =  400.000; ENMIN  =  300.000 eV                                                          
   ICORE  =        2    local potential                                                             
   LCOR   =        T    correct aug charges                                                         
   LPAW   =        T    paw PP                                                                      
   EAUG   =  644.873                                                                                
   DEXC   =    0.000                                                                                
   RMAX   =    1.529    core radius for proj-oper                                                   
   RAUG   =    1.300    factor for augmentation sphere                                              
   RDEP   =    1.501    radius for radial grids                                                     
   RDEPT  =    1.300    core radius for aug-charge                                                  
                                                                                                    
   Atomic configuration                                                                             
    4 entries                                                                                       
     n  l   j            E        occ.                                                              
     1  0  0.50      -273.3789   2.0000                                                             
     2  0  0.50       -13.7508   2.0000                                                             
     2  1  0.50        -5.2854   2.0000                                                             
     3  2  1.50        -5.4423   0.0000                                                             
   Description                                                                                      
     l       E           TYP  RCUT    TYP  RCUT                                                     
     0    -13.7508458     23  1.200                                                                 
     0     -8.2022199     23  1.200                                                                 
     1     -5.2854383     23  1.500                                                                 
     1     34.0145650     23  1.500                                                                 
     2     -5.4423304      7  1.500                                                                 
  local pseudopotential read in
  partial core-charges read in
  partial kinetic energy density read in
  atomic valenz-charges read in
  non local Contribution for L=           0  read in
    real space projection operators read in
  non local Contribution for L=           0  read in
    real space projection operators read in
  non local Contribution for L=           1  read in
    real space projection operators read in
  non local Contribution for L=           1  read in
    real space projection operators read in
    PAW grid and wavefunctions read in
 
   number of l-projection  operators is LMAX  =           4
   number of lm-projection operators is LMMAX =           8
 
 POTCAR:    PAW_PBE H 15Jun2001                   
   VRHFIN =H: ultrasoft test                                                                        
   LEXCH  = PE                                                                                      
   EATOM  =    12.4884 eV,    0.9179 Ry                                                             
                                                                                                    
   TITEL  = PAW_PBE H 15Jun2001                                                                     
   LULTRA =        F    use ultrasoft PP ?                                                          
   IUNSCR =        0    unscreen: 0-lin 1-nonlin 2-no                                               
   RPACOR =    0.000    partial core radius                                                         
   POMASS =    1.000; ZVAL   =    1.000    mass and valenz                                          
   RCORE  =    1.100    outmost cutoff radius                                                       
   RWIGS  =    0.700; RWIGS  =    0.370    wigner-seitz radius (au A)                               
   ENMAX  =  250.000; ENMIN  =  200.000 eV                                                          
   RCLOC  =    0.701    cutoff for local pot                                                        
   LCOR   =        T    correct aug charges                                                         
   LPAW   =        T    paw PP                                                                      
   EAUG   =  400.000                                                                                
   RMAX   =    1.123    core radius for proj-oper                                                   
   RAUG   =    1.200    factor for augmentation sphere                                              
   RDEP   =    1.112    radius for radial grids                                                     
   RDEPT  =    0.926    core radius for aug-charge                                                  
                                                                                                    
   Atomic configuration                                                                             
    2 entries                                                                                       
     n  l   j            E        occ.                                                              
     1  0  0.50        -6.4927   1.0000                                                             
     2  1  0.50        -3.4015   0.0000                                                             
   Description                                                                                      
     l       E           TYP  RCUT    TYP  RCUT                                                     
     0     -6.4927494     23  1.100                                                                 
     0      6.8029130     23  1.100                                                                 
     1     -4.0817478     23  1.100                                                                 
  local pseudopotential read in
  atomic valenz-charges read in
  non local Contribution for L=           0  read in
    real space projection operators read in
  non local Contribution for L=           0  read in
    real space projection operators read in
  non local Contribution for L=           1  read in
    real space projection operators read in
    PAW grid and wavefunctions read in
 
   number of l-projection  operators is LMAX  =           3
   number of lm-projection operators is LMMAX =           5
 
 POTCAR:    PAW_PBE C 08Apr2002                   
   VRHFIN =C: s2p2                                                                                  
   LEXCH  = PE                                                                                      
   EATOM  =   147.1560 eV,   10.8157 Ry                                                             
                                                                                                    
   TITEL  = PAW_PBE C 08Apr2002                                                                     
   LULTRA =        F    use ultrasoft PP ?                                                          
   IUNSCR =        1    unscreen: 0-lin 1-nonlin 2-no                                               
   RPACOR =    1.200    partial core radius                                                         
   POMASS =   12.011; ZVAL   =    4.000    mass and valenz                                          
   RCORE  =    1.500    outmost cutoff radius                                                       
   RWIGS  =    1.630; RWIGS  =    0.863    wigner-seitz radius (au A)                               
   ENMAX  =  400.000; ENMIN  =  300.000 eV                                                          
   ICORE  =        2    local potential                                                             
   LCOR   =        T    correct aug charges                                                         
   LPAW   =        T    paw PP                                                                      
   EAUG   =  644.873                                                                                
   DEXC   =    0.000                                                                                
   RMAX   =    1.529    core radius for proj-oper                                                   
   RAUG   =    1.300    factor for augmentation sphere                                              
   RDEP   =    1.501    radius for radial grids                                                     
   RDEPT  =    1.300    core radius for aug-charge                                                  
                                                                                                    
   Atomic configuration                                                                             
    4 entries                                                                                       
     n  l   j            E        occ.                                                              
     1  0  0.50      -273.3789   2.0000                                                             
     2  0  0.50       -13.7508   2.0000                                                             
     2  1  0.50        -5.2854   2.0000                                                             
     3  2  1.50        -5.4423   0.0000                                                             
   Description                                                                                      
     l       E           TYP  RCUT    TYP  RCUT                                                     
     0    -13.7508458     23  1.200                                                                 
     0     -8.2022199     23  1.200                                                                 
     1     -5.2854383     23  1.500                                                                 
     1     34.0145650     23  1.500                                                                 
     2     -5.4423304      7  1.500                                                                 
  local pseudopotential read in
  partial core-charges read in
  partial kinetic energy density read in
  atomic valenz-charges read in
  non local Contribution for L=           0  read in
    real space projection operators read in
  non local Contribution for L=           0  read in
    real space projection operators read in
  non local Contribution for L=           1  read in
    real space projection operators read in
  non local Contribution for L=           1  read in
    real space projection operators read in
    PAW grid and wavefunctions read in
 
   number of l-projection  operators is LMAX  =           4
   number of lm-projection operators is LMMAX =           8
 
 POTCAR:    PAW_PBE N 08Apr2002                   
   VRHFIN =N: s2p3                                                                                  
   LEXCH  = PE                                                                                      
   EATOM  =   264.5486 eV,   19.4438 Ry                                                             
                                                                                                    
   TITEL  = PAW_PBE N 08Apr2002                                                                     
   LULTRA =        F    use ultrasoft PP ?                                                          
   IUNSCR =        1    unscreen: 0-lin 1-nonlin 2-no                                               
   RPACOR =    1.200    partial core radius                                                         
   POMASS =   14.001; ZVAL   =    5.000    mass and valenz                                          
   RCORE  =    1.500    outmost cutoff radius                                                       
   RWIGS  =    1.400; RWIGS  =    0.741    wigner-seitz radius (au A)                               
   ENMAX  =  400.000; ENMIN  =  300.000 eV                                                          
   ICORE  =        2    local potential                                                             
   LCOR   =        T    correct aug charges                                                         
   LPAW   =        T    paw PP                                                                      
   EAUG   =  627.112                                                                                
   DEXC   =    0.000                                                                                
   RMAX   =    1.529    core radius for proj-oper                                                   
   RAUG   =    1.300    factor for augmentation sphere                                              
   RDEP   =    1.514    radius for radial grids                                                     
   RDEPT  =    1.338    core radius for aug-charge                                                  
                                                                                                    
   Atomic configuration                                                                             
    4 entries                                                                                       
     n  l   j            E        occ.                                                              
     1  0  0.50      -384.7179   2.0000                                                             
     2  0  0.50       -18.5828   2.0000                                                             
     2  1  0.50        -7.0898   3.0000                                                             
     3  2  1.50        -6.8029   0.0000                                                             
   Description                                                                                      
     l       E           TYP  RCUT    TYP  RCUT                                                     
     0    -18.5828119     23  1.200                                                                 
     0    -13.5018863     23  1.200                                                                 
     1     -7.0897853     23  1.500                                                                 
     1      9.5240782     23  1.500                                                                 
     2     -6.8029130      7  1.500                                                                 
  local pseudopotential read in
  partial core-charges read in
  partial kinetic energy density read in
  atomic valenz-charges read in
  non local Contribution for L=           0  read in
    real space projection operators read in
  non local Contribution for L=           0  read in
    real space projection operators read in
  non local Contribution for L=           1  read in
    real space projection operators read in
  non local Contribution for L=           1  read in
    real space projection operators read in
    PAW grid and wavefunctions read in
 
   number of l-projection  operators is LMAX  =           4
   number of lm-projection operators is LMMAX =           8
 
 Optimization of the real space projectors (new method)

 maximal supplied QI-value         = 25.13
 optimisation between [QCUT,QGAM] = [ 13.32, 26.89] = [ 49.69,202.52] Ry 
 Optimized for a Real-space Cutoff    1.01 Angstroem

   l    n(q)    QCUT    max X(q) W(low)/X(q) W(high)/X(q)  e(spline) 
   0      8    13.321   115.676    0.29E-03    0.42E-03    0.11E-06
   0      8    13.321    87.132    0.29E-03    0.42E-03    0.11E-06
   1      8    13.321     4.429    0.39E-03    0.33E-03    0.98E-07
   1      8    13.321     2.733    0.30E-03    0.26E-03    0.97E-07
 Optimization of the real space projectors (new method)

 maximal supplied QI-value         = 34.20
 optimisation between [QCUT,QGAM] = [ 13.34, 27.02] = [ 49.83,204.46] Ry 
 Optimized for a Real-space Cutoff    0.93 Angstroem

   l    n(q)    QCUT    max X(q) W(low)/X(q) W(high)/X(q)  e(spline) 
   0      7    13.340    19.460    0.47E-03    0.72E-04    0.17E-06
   0      7    13.340    12.209    0.45E-03    0.63E-04    0.16E-06
   1      7    13.340     4.655    0.21E-03    0.61E-03    0.12E-06
 Optimization of the real space projectors (new method)

 maximal supplied QI-value         = 25.13
 optimisation between [QCUT,QGAM] = [ 13.32, 26.89] = [ 49.69,202.52] Ry 
 Optimized for a Real-space Cutoff    1.01 Angstroem

   l    n(q)    QCUT    max X(q) W(low)/X(q) W(high)/X(q)  e(spline) 
   0      8    13.321   115.676    0.29E-03    0.42E-03    0.11E-06
   0      8    13.321    87.132    0.29E-03    0.42E-03    0.11E-06
   1      8    13.321     4.429    0.39E-03    0.33E-03    0.98E-07
   1      8    13.321     2.733    0.30E-03    0.26E-03    0.97E-07
 Optimization of the real space projectors (new method)

 maximal supplied QI-value         = 25.13
 optimisation between [QCUT,QGAM] = [ 13.32, 26.89] = [ 49.69,202.52] Ry 
 Optimized for a Real-space Cutoff    1.01 Angstroem

   l    n(q)    QCUT    max X(q) W(low)/X(q) W(high)/X(q)  e(spline) 
   0      8    13.321    79.467    0.28E-03    0.38E-03    0.11E-06
   0      8    13.321    66.151    0.27E-03    0.38E-03    0.11E-06
   1      8    13.321    23.070    0.40E-03    0.78E-03    0.29E-06
   1      8    13.321    16.668    0.40E-03    0.79E-03    0.30E-06
  PAW_PBE C 08Apr2002                   :
 energy of atom  1       EATOM= -147.1560
 kinetic energy error for atom=    0.0032 (will be added to EATOM!!)
  PAW_PBE H 15Jun2001                   :
 energy of atom  2       EATOM=  -12.4884
 kinetic energy error for atom=    0.0002 (will be added to EATOM!!)
  PAW_PBE C 08Apr2002                   :
 energy of atom  3       EATOM= -147.1560
 kinetic energy error for atom=    0.0032 (will be added to EATOM!!)
  PAW_PBE N 08Apr2002                   :
 energy of atom  4       EATOM= -264.5486
 kinetic energy error for atom=    0.0061 (will be added to EATOM!!)
 
 
 POSCAR: Autosave
  positions in direct lattice
  velocities in cartesian coordinates
 exchange correlation table for  LEXCH =        8
   RHO(1)=    0.500       N(1)  =     2000
   RHO(2)=  100.500       N(2)  =     4000
 


--------------------------------------------------------------------------------------------------------


 ion  position               nearest neighbor table
   1  1.000  1.000  1.000- 288 1.55 384 1.55 476 1.55 437 1.55
   2  1.000  1.000  0.500- 436 1.55 289 1.55 383 1.55 475 1.55
   3  1.000  0.250  1.000- 290 1.55 470 1.55 431 1.55 386 1.55
   4  1.000  0.250  0.500- 469 1.55 430 1.55 291 1.55 385 1.55
   5  1.000  0.500  0.000- 292 1.55 472 1.55 388 1.55 433 1.55
   6  1.000  0.500  0.500- 432 1.54 471 1.54 293 1.55 387 1.55
   7  0.000  0.750  1.000- 390 1.55 294 1.55 474 1.55 435 1.55
   8  1.000  0.750  0.500- 295 1.55 389 1.55 434 1.55 473 1.55
   9  0.167  1.000  1.000- 296 1.55 437 1.55 392 1.55 445 1.55
  10  0.167  1.000  0.500- 391 1.54 444 1.55 436 1.55 297 1.55
  11  0.167  0.250  1.000- 298 1.55 431 1.55 439 1.55 394 1.55
  12  0.167  0.250  0.500- 430 1.55 299 1.55 393 1.55 438 1.55
  13  0.167  0.500  1.000- 300 1.55 433 1.55 396 1.55 441 1.55
  14  0.166  0.500  0.500- 440 1.54 432 1.54 301 1.55 395 1.55
  15  0.167  0.750  1.000- 435 1.55 398 1.55 302 1.55 443 1.55
  16  0.167  0.750  0.500- 303 1.55 442 1.55 434 1.55 397 1.55
  17  0.333  0.000  1.000- 304 1.55 400 1.55 453 1.55 445 1.55
  18  0.333  0.000  0.500- 399 1.55 452 1.55 305 1.55 444 1.55
  19  0.333  0.250  0.000- 306 1.55 447 1.55 402 1.55 439 1.55
  20  0.333  0.250  0.500- 401 1.54 438 1.54 307 1.55 446 1.55
  21  0.333  0.500  0.000- 449 1.55 404 1.55 308 1.55 441 1.55
  22  0.332  0.499  0.499- 448 1.52 440 1.54 309 1.55 403 1.55
  23  0.333  0.750  1.000- 310 1.55 406 1.55 443 1.55 451 1.55
  24  0.333  0.751  0.500- 450 1.54 405 1.54 311 1.55 442 1.55
  25  0.500  0.000  1.000- 408 1.55 312 1.55 460 1.55 453 1.55
  26  0.500  0.000  0.500- 407 1.55 313 1.55 452 1.55 459 1.55
  27  0.500  0.250  0.000- 410 1.54 314 1.54 455 1.55 447 1.55
  28  0.500  0.250  0.500- 315 1.55 454 1.55 409 1.55 446 1.55
  29  0.500  0.500  0.000- 411 1.55 456 1.55 449 1.55 316 1.55
  30  0.500  0.750  1.000- 317 1.54 413 1.55 458 1.55 451 1.55
  31  0.500  0.751  0.500- 412 1.54 318 1.55 457 1.55 450 1.55
  32  0.667  0.000  1.000- 319 1.55 415 1.55 460 1.55 468 1.55
  33  0.667  0.000  0.500- 414 1.55 459 1.55 320 1.55 467 1.55
  34  0.667  0.250  0.000- 321 1.55 417 1.55 455 1.55 462 1.55
  35  0.667  0.250  0.500- 416 1.54 461 1.54 322 1.55 454 1.55
  36  0.667  0.500  0.001- 456 1.55 419 1.55 323 1.55 464 1.55
  37  0.666  0.499  0.500- 575 1.49 324 1.55 418 1.55 463 1.55
  38  0.667  0.750  1.000- 325 1.55 458 1.55 466 1.55 421 1.55
  39  0.667  0.750  0.500- 457 1.54 420 1.54 326 1.55 465 1.55
  40  0.833  1.000  0.000- 327 1.55 423 1.55 476 1.55 468 1.55
  41  0.833  1.000  0.500- 422 1.54 475 1.55 467 1.55 328 1.55
  42  0.833  0.250  0.000- 329 1.55 462 1.55 470 1.55 425 1.55
  43  0.833  0.250  0.500- 469 1.55 330 1.55 424 1.55 461 1.55
  44  0.833  0.500  0.000- 331 1.55 464 1.55 427 1.55 472 1.55
  45  0.834  0.500  0.500- 463 1.54 471 1.54 332 1.55 426 1.55
  46  0.833  0.750  1.000- 429 1.55 474 1.55 333 1.55 466 1.55
  47  0.833  0.750  0.500- 334 1.55 473 1.55 428 1.55 465 1.55
  48  0.083  0.125  1.000- 335 1.55 384 1.55 431 1.55 392 1.55
  49  0.083  0.125  0.500- 383 1.55 391 1.55 430 1.55 336 1.55
  50  0.083  0.375  1.000- 386 1.55 337 1.55 433 1.55 394 1.55
  51  0.083  0.375  0.500- 385 1.55 393 1.55 338 1.55 432 1.55
  52  0.083  0.625  1.000- 388 1.55 435 1.55 339 1.55 396 1.55
  53  0.083  0.625  0.500- 340 1.55 434 1.55 395 1.55 387 1.55
  54  0.083  0.875  1.000- 341 1.55 437 1.55 390 1.55 398 1.55
  55  0.083  0.875  0.500- 436 1.55 397 1.55 342 1.55 389 1.55
  56  0.250  0.125  1.000- 343 1.55 439 1.55 392 1.55 400 1.55
  57  0.250  0.125  0.500- 438 1.54 391 1.55 399 1.55 344 1.55
  58  0.250  0.375  1.000- 345 1.54 394 1.55 441 1.55 402 1.55
  59  0.250  0.375  0.500- 393 1.54 346 1.55 401 1.55 440 1.55
  60  0.250  0.625  1.000- 404 1.55 347 1.55 443 1.55 396 1.55
  61  0.251  0.625  0.500- 348 1.54 442 1.55 395 1.55 403 1.55
  62  0.250  0.875  1.000- 349 1.55 445 1.55 398 1.55 406 1.55
  63  0.250  0.875  0.500- 405 1.54 444 1.54 350 1.55 397 1.55
  64  0.417  0.125  0.000- 447 1.55 351 1.55 408 1.55 400 1.55
  65  0.417  0.125  0.500- 446 1.55 352 1.55 407 1.55 399 1.55
  66  0.417  0.375  0.000- 353 1.55 410 1.55 449 1.55 402 1.55
  67  0.415  0.374  0.499- 448 1.52 401 1.54 409 1.55 354 1.55
  68  0.417  0.625  0.000- 355 1.55 411 1.55 404 1.55 451 1.55
  69  0.418  0.626  0.498- 576 1.48 450 1.54 356 1.56 403 1.56
  70  0.417  0.875  1.000- 453 1.55 357 1.55 413 1.55 406 1.55
  71  0.417  0.875  0.500- 452 1.54 412 1.55 358 1.55 405 1.55
  72  0.583  0.125  0.000- 455 1.55 359 1.55 408 1.55 415 1.55
  73  0.583  0.125  0.500- 454 1.55 360 1.55 407 1.55 414 1.55
  74  0.583  0.375  0.000- 361 1.55 456 1.55 410 1.55 417 1.55
  75  0.584  0.375  0.500- 575 1.49 362 1.55 416 1.55 409 1.56
  76  0.583  0.625  0.000- 363 1.55 419 1.55 411 1.55 458 1.55
  77  0.581  0.626  0.498- 576 1.48 457 1.55 364 1.56 418 1.56
  78  0.583  0.875  1.000- 460 1.55 365 1.55 413 1.55 421 1.55
  79  0.583  0.875  0.500- 459 1.54 412 1.55 366 1.55 420 1.55
  80  0.750  0.125  0.000- 367 1.55 462 1.55 415 1.55 423 1.55
  81  0.750  0.125  0.500- 461 1.54 422 1.54 414 1.55 368 1.55
  82  0.750  0.375  0.000- 369 1.54 417 1.55 464 1.55 425 1.55
  83  0.750  0.375  0.500- 424 1.55 370 1.55 416 1.55 463 1.55
  84  0.750  0.625  0.000- 419 1.54 371 1.54 466 1.55 427 1.55
  85  0.749  0.625  0.500- 372 1.54 465 1.55 426 1.55 418 1.56
  86  0.750  0.875  1.000- 373 1.55 468 1.55 429 1.55 421 1.55
  87  0.750  0.875  0.500- 420 1.54 467 1.55 374 1.55 428 1.55
  88  0.917  0.125  1.000- 375 1.55 423 1.55 384 1.55 470 1.55
  89  0.917  0.125  0.500- 383 1.55 422 1.55 469 1.55 376 1.55
  90  0.917  0.375  1.000- 377 1.55 425 1.55 472 1.55 386 1.55
  91  0.917  0.375  0.500- 385 1.55 424 1.55 378 1.55 471 1.55
  92  0.917  0.625  0.000- 427 1.55 379 1.55 474 1.55 388 1.55
  93  0.916  0.625  0.500- 380 1.55 473 1.55 387 1.55 426 1.55
  94  0.917  0.875  1.000- 381 1.55 476 1.55 390 1.55 429 1.55
  95  0.917  0.875  0.500- 475 1.55 389 1.55 382 1.55 428 1.55
  96  1.000  0.083  0.333- 565 1.55 525 1.55 383 1.55 477 1.55
  97  1.000  0.083  0.833- 384 1.55 478 1.55 566 1.55 526 1.55
  98  1.000  0.333  0.333- 567 1.55 385 1.55 527 1.55 479 1.55
  99  1.000  0.333  0.833- 386 1.55 568 1.55 480 1.55 528 1.55
 100  1.000  0.583  0.333- 387 1.55 481 1.55 529 1.55 569 1.55
 101  0.000  0.583  0.833- 570 1.55 388 1.55 482 1.55 530 1.55
 102  1.000  0.833  0.333- 483 1.55 531 1.55 389 1.55 571 1.55
 103  0.000  0.833  0.833- 390 1.55 484 1.55 572 1.55 532 1.55
 104  0.167  0.083  0.333- 525 1.55 485 1.55 533 1.55 391 1.55
 105  0.167  0.083  0.833- 392 1.55 526 1.55 534 1.55 486 1.55
 106  0.167  0.333  0.333- 527 1.55 535 1.55 393 1.55 487 1.55
 107  0.167  0.333  0.833- 394 1.55 528 1.55 536 1.55 488 1.55
 108  0.167  0.583  0.333- 537 1.55 395 1.55 489 1.55 529 1.55
 109  0.167  0.583  0.833- 490 1.55 530 1.55 396 1.55 538 1.55
 110  0.167  0.833  0.333- 539 1.55 491 1.55 397 1.55 531 1.55
 111  0.167  0.833  0.833- 398 1.55 532 1.55 492 1.55 540 1.55
 112  0.333  0.083  0.333- 493 1.55 399 1.55 541 1.55 533 1.55
 113  0.333  0.083  0.833- 494 1.55 400 1.55 542 1.55 534 1.55
 114  0.333  0.333  0.333- 535 1.54 543 1.55 401 1.55 495 1.55
 115  0.333  0.333  0.833- 544 1.55 496 1.55 402 1.55 536 1.55
 116  0.333  0.583  0.333- 403 1.54 545 1.54 537 1.55 497 1.55
 117  0.333  0.583  0.833- 546 1.54 404 1.55 498 1.55 538 1.55
 118  0.333  0.834  0.333- 499 1.54 547 1.55 539 1.55 405 1.55
 119  0.333  0.833  0.833- 406 1.55 548 1.55 500 1.55 540 1.55
 120  0.500  0.083  0.333- 501 1.55 407 1.55 541 1.55 549 1.55
 121  0.500  0.083  0.833- 502 1.55 408 1.55 550 1.55 542 1.55
 122  0.500  0.333  0.334- 409 1.54 503 1.54 551 1.55 543 1.55
 123  0.500  0.333  0.834- 504 1.54 410 1.54 552 1.55 544 1.55
 124  0.500  0.585  0.335- 576 1.48 505 1.54 553 1.56 545 1.56
 125  0.500  0.583  0.833- 506 1.55 411 1.55 554 1.55 546 1.55
 126  0.500  0.834  0.333- 507 1.54 412 1.55 555 1.55 547 1.55
 127  0.500  0.833  0.833- 413 1.55 508 1.55 556 1.55 548 1.55
 128  0.667  0.083  0.333- 509 1.55 414 1.55 549 1.55 557 1.55
 129  0.667  0.083  0.833- 510 1.55 415 1.55 550 1.55 558 1.55
 130  0.667  0.333  0.334- 551 1.55 559 1.55 416 1.55 511 1.55
 131  0.667  0.333  0.834- 512 1.55 417 1.55 552 1.55 560 1.55
 132  0.666  0.583  0.334- 418 1.54 553 1.54 561 1.55 513 1.55
 133  0.667  0.583  0.834- 554 1.54 419 1.54 562 1.55 514 1.55
 134  0.667  0.834  0.333- 515 1.54 555 1.55 563 1.55 420 1.55
 135  0.667  0.833  0.833- 421 1.55 556 1.55 516 1.55 564 1.55
 136  0.833  0.083  0.333- 565 1.55 557 1.55 517 1.55 422 1.55
 137  0.833  0.083  0.833- 423 1.55 518 1.55 558 1.55 566 1.55
 138  0.833  0.333  0.333- 559 1.55 424 1.55 567 1.55 519 1.55
 139  0.833  0.333  0.833- 425 1.55 568 1.55 560 1.55 520 1.55
 140  0.833  0.583  0.333- 426 1.55 561 1.55 521 1.55 569 1.55
 141  0.833  0.583  0.833- 562 1.54 570 1.55 522 1.55 427 1.55
 142  0.833  0.833  0.333- 563 1.55 523 1.55 428 1.55 571 1.55
 143  0.833  0.833  0.833- 429 1.55 524 1.55 572 1.55 564 1.55
 144  0.083  0.208  0.333- 477 1.55 485 1.55 430 1.55 527 1.55
 145  0.083  0.208  0.833- 431 1.55 486 1.55 478 1.55 528 1.55
 146  0.083  0.458  0.333- 479 1.55 487 1.55 529 1.55 432 1.55
 147  0.083  0.458  0.833- 433 1.55 530 1.55 480 1.55 488 1.55
 148  0.083  0.708  0.333- 489 1.55 434 1.55 531 1.55 481 1.55
 149  0.083  0.708  0.833- 435 1.55 532 1.55 482 1.55 490 1.55
 150  0.083  0.958  0.333- 491 1.55 525 1.55 483 1.55 436 1.55
 151  0.083  0.958  0.833- 437 1.55 526 1.55 492 1.55 484 1.55
 152  0.250  0.208  0.333- 485 1.55 493 1.55 535 1.55 438 1.55
 153  0.250  0.208  0.833- 439 1.55 536 1.55 486 1.55 494 1.55
 154  0.249  0.458  0.333- 487 1.54 537 1.55 440 1.55 495 1.55
 155  0.250  0.458  0.833- 538 1.55 496 1.55 441 1.55 488 1.55
 156  0.250  0.708  0.333- 497 1.55 442 1.55 539 1.55 489 1.55
 157  0.250  0.708  0.833- 490 1.55 540 1.55 443 1.55 498 1.55
 158  0.250  0.958  0.333- 533 1.55 499 1.55 444 1.55 491 1.55
 159  0.250  0.958  0.833- 445 1.55 534 1.55 492 1.55 500 1.55
 160  0.417  0.208  0.333- 446 1.55 543 1.55 501 1.55 493 1.55
 161  0.417  0.208  0.833- 544 1.55 494 1.55 447 1.55 502 1.55
 162  0.415  0.458  0.333- 448 1.52 495 1.54 503 1.55 545 1.55
 163  0.417  0.458  0.833- 496 1.55 449 1.55 504 1.55 546 1.55
 164  0.416  0.709  0.333- 547 1.54 497 1.55 450 1.55 505 1.55
 165  0.417  0.708  0.833- 498 1.55 506 1.55 548 1.55 451 1.55
 166  0.417  0.958  0.333- 541 1.55 452 1.55 507 1.55 499 1.55
 167  0.417  0.958  0.833- 453 1.55 542 1.55 500 1.55 508 1.55
 168  0.583  0.208  0.333- 454 1.55 551 1.55 509 1.55 501 1.55
 169  0.583  0.208  0.833- 552 1.54 455 1.55 510 1.55 502 1.55
 170  0.583  0.459  0.336- 575 1.51 553 1.55 503 1.55 511 1.57
 171  0.583  0.458  0.834- 512 1.55 456 1.55 504 1.55 554 1.55
 172  0.583  0.709  0.333- 555 1.54 513 1.55 457 1.55 505 1.55
 173  0.583  0.708  0.833- 514 1.55 506 1.55 556 1.55 458 1.55
 174  0.583  0.958  0.333- 549 1.55 459 1.55 515 1.55 507 1.55
 175  0.583  0.958  0.833- 460 1.55 550 1.55 516 1.55 508 1.55
 176  0.750  0.208  0.333- 517 1.55 509 1.55 461 1.55 559 1.55
 177  0.750  0.208  0.833- 462 1.55 560 1.55 518 1.55 510 1.55
 178  0.750  0.458  0.334- 561 1.55 519 1.55 463 1.55 511 1.55
 179  0.750  0.458  0.834- 512 1.55 464 1.55 562 1.55 520 1.55
 180  0.750  0.708  0.333- 465 1.55 513 1.55 521 1.55 563 1.55
 181  0.750  0.708  0.833- 564 1.55 522 1.55 514 1.55 466 1.55
 182  0.750  0.958  0.333- 557 1.55 515 1.55 467 1.55 523 1.55
 183  0.750  0.958  0.833- 468 1.55 558 1.55 524 1.55 516 1.55
 184  0.917  0.208  0.333- 517 1.55 469 1.55 477 1.55 567 1.55
 185  0.917  0.208  0.833- 470 1.55 518 1.55 568 1.55 478 1.55
 186  0.917  0.458  0.333- 479 1.55 519 1.55 471 1.55 569 1.55
 187  0.917  0.458  0.833- 520 1.55 472 1.55 570 1.55 480 1.55
 188  0.917  0.708  0.333- 473 1.55 521 1.55 571 1.55 481 1.55
 189  0.917  0.708  0.833- 572 1.55 474 1.55 482 1.55 522 1.55
 190  0.917  0.958  0.333- 523 1.55 475 1.55 565 1.55 483 1.55
 191  0.917  0.958  0.833- 476 1.55 566 1.55 524 1.55 484 1.55
 192  1.000  0.167  0.167- 375 1.55 477 1.55 335 1.55 290 1.55
 193  1.000  0.167  0.667- 478 1.55 376 1.55 336 1.55 291 1.55
 194  1.000  0.417  0.167- 377 1.55 479 1.55 337 1.55 292 1.55
 195  0.000  0.417  0.667- 480 1.55 338 1.55 378 1.55 293 1.55
 196  1.000  0.667  0.167- 379 1.55 481 1.55 294 1.55 339 1.55
 197  0.000  0.667  0.667- 295 1.55 482 1.55 380 1.55 340 1.55
 198  1.000  0.917  0.167- 381 1.55 288 1.55 341 1.55 483 1.55
 199  0.000  0.917  0.667- 484 1.55 342 1.55 289 1.55 382 1.55
 200  0.167  0.167  0.167- 335 1.55 485 1.55 298 1.55 343 1.55
 201  0.167  0.167  0.667- 486 1.55 344 1.55 299 1.55 336 1.55
 202  0.166  0.417  0.166- 337 1.55 487 1.55 300 1.55 345 1.55
 203  0.167  0.417  0.667- 346 1.55 488 1.55 301 1.55 338 1.55
 204  0.167  0.667  0.167- 489 1.55 347 1.55 302 1.55 339 1.55
 205  0.167  0.667  0.666- 490 1.55 303 1.55 340 1.55 348 1.55
 206  0.167  0.917  0.167- 296 1.55 491 1.55 349 1.55 341 1.55
 207  0.167  0.917  0.667- 492 1.55 297 1.55 350 1.55 342 1.55
 208  0.333  0.167  0.167- 493 1.55 306 1.55 343 1.55 351 1.55
 209  0.333  0.167  0.667- 307 1.55 494 1.55 352 1.55 344 1.55
 210  0.333  0.416  0.166- 495 1.54 345 1.54 353 1.55 308 1.55
 211  0.334  0.417  0.666- 354 1.54 309 1.54 496 1.55 346 1.55
 212  0.333  0.667  0.167- 497 1.54 355 1.55 310 1.55 347 1.55
 213  0.334  0.666  0.666- 348 1.54 311 1.55 498 1.55 356 1.56
 214  0.333  0.917  0.167- 304 1.55 499 1.55 357 1.55 349 1.55
 215  0.333  0.917  0.667- 500 1.55 305 1.55 358 1.55 350 1.55
 216  0.500  0.167  0.167- 314 1.55 501 1.55 359 1.55 351 1.55
 217  0.500  0.167  0.667- 315 1.55 502 1.55 352 1.55 360 1.55
 218  0.500  0.417  0.168- 316 1.55 361 1.55 503 1.55 353 1.55
 219  0.501  0.417  0.667- 574 1.49 362 1.55 504 1.55 354 1.56
 220  0.500  0.667  0.166- 505 1.54 317 1.54 363 1.55 355 1.55
 221  0.500  0.666  0.666- 364 1.54 356 1.54 506 1.55 318 1.55
 222  0.500  0.917  0.167- 312 1.55 507 1.55 365 1.55 357 1.55
 223  0.500  0.917  0.667- 508 1.55 313 1.55 366 1.55 358 1.55
 224  0.667  0.167  0.167- 509 1.55 321 1.55 359 1.55 367 1.55
 225  0.667  0.167  0.667- 322 1.54 510 1.55 368 1.55 360 1.55
 226  0.667  0.417  0.167- 511 1.54 361 1.55 323 1.55 369 1.55
 227  0.667  0.417  0.667- 362 1.54 324 1.55 370 1.55 512 1.55
 228  0.667  0.667  0.167- 513 1.55 363 1.55 371 1.55 325 1.55
 229  0.666  0.666  0.666- 372 1.54 326 1.55 514 1.55 364 1.56
 230  0.667  0.917  0.167- 319 1.55 515 1.55 373 1.55 365 1.55
 231  0.667  0.917  0.667- 516 1.55 320 1.55 366 1.55 374 1.55
 232  0.833  0.167  0.167- 517 1.55 367 1.55 329 1.55 375 1.55
 233  0.833  0.167  0.667- 518 1.55 330 1.55 368 1.55 376 1.55
 234  0.833  0.417  0.167- 519 1.55 369 1.55 331 1.55 377 1.55
 235  0.833  0.417  0.667- 370 1.55 520 1.55 378 1.55 332 1.55
 236  0.833  0.667  0.167- 371 1.55 521 1.55 333 1.55 379 1.55
 237  0.833  0.667  0.667- 522 1.55 334 1.55 380 1.55 372 1.55
 238  0.833  0.917  0.167- 327 1.55 523 1.55 373 1.55 381 1.55
 239  0.833  0.917  0.667- 524 1.55 328 1.55 374 1.55 382 1.55
 240  0.083  0.042  0.167- 296 1.55 288 1.55 525 1.55 335 1.55
 241  0.083  0.042  0.667- 526 1.55 297 1.55 336 1.55 289 1.55
 242  0.083  0.292  0.167- 290 1.55 527 1.55 298 1.55 337 1.55
 243  0.083  0.292  0.667- 528 1.55 299 1.55 291 1.55 338 1.55
 244  0.083  0.542  0.167- 529 1.55 300 1.55 292 1.55 339 1.55
 245  0.083  0.542  0.667- 530 1.55 301 1.55 340 1.55 293 1.55
 246  0.083  0.792  0.167- 341 1.55 294 1.55 302 1.55 531 1.55
 247  0.083  0.792  0.667- 532 1.55 342 1.55 295 1.55 303 1.55
 248  0.250  0.042  0.167- 343 1.55 533 1.55 304 1.55 296 1.55
 249  0.250  0.042  0.667- 344 1.55 534 1.55 305 1.55 297 1.55
 250  0.250  0.292  0.166- 298 1.55 535 1.55 306 1.55 345 1.55
 251  0.250  0.292  0.667- 536 1.55 307 1.55 346 1.55 299 1.55
 252  0.250  0.542  0.167- 537 1.54 308 1.55 347 1.55 300 1.55
 253  0.251  0.541  0.666- 348 1.55 538 1.55 301 1.55 309 1.55
 254  0.250  0.792  0.167- 349 1.55 539 1.55 310 1.55 302 1.55
 255  0.250  0.792  0.667- 540 1.55 303 1.55 311 1.55 350 1.55
 256  0.417  0.042  0.167- 351 1.55 541 1.55 304 1.55 312 1.55
 257  0.417  0.042  0.667- 352 1.55 542 1.55 305 1.55 313 1.55
 258  0.417  0.292  0.167- 543 1.55 353 1.55 314 1.55 306 1.55
 259  0.417  0.292  0.667- 315 1.55 544 1.55 354 1.55 307 1.55
 260  0.417  0.542  0.167- 316 1.55 355 1.55 308 1.55 545 1.55
 261  0.419  0.541  0.665- 574 1.51 356 1.55 309 1.55 546 1.57
 262  0.417  0.792  0.166- 357 1.54 547 1.55 310 1.55 317 1.55
 263  0.417  0.792  0.667- 318 1.55 548 1.55 311 1.55 358 1.55
 264  0.583  0.042  0.167- 359 1.55 549 1.55 319 1.55 312 1.55
 265  0.583  0.042  0.667- 360 1.55 550 1.55 320 1.55 313 1.55
 266  0.583  0.292  0.167- 551 1.55 361 1.55 314 1.55 321 1.55
 267  0.583  0.292  0.667- 362 1.54 552 1.55 315 1.55 322 1.55
 268  0.583  0.542  0.168- 316 1.55 363 1.55 323 1.55 553 1.56
 269  0.583  0.541  0.667- 574 1.49 324 1.55 364 1.55 554 1.55
 270  0.583  0.792  0.166- 365 1.54 555 1.55 325 1.55 317 1.55
 271  0.583  0.792  0.667- 318 1.55 326 1.55 556 1.55 366 1.55
 272  0.750  0.042  0.167- 367 1.55 557 1.55 319 1.55 327 1.55
 273  0.750  0.042  0.667- 368 1.55 558 1.55 320 1.55 328 1.55
 274  0.750  0.292  0.167- 559 1.55 321 1.55 329 1.55 369 1.55
 275  0.750  0.292  0.667- 370 1.55 560 1.55 330 1.55 322 1.55
 276  0.750  0.542  0.167- 561 1.54 323 1.55 371 1.55 331 1.55
 277  0.750  0.541  0.667- 324 1.54 372 1.55 332 1.55 562 1.55
 278  0.750  0.792  0.167- 563 1.55 373 1.55 325 1.55 333 1.55
 279  0.750  0.792  0.667- 564 1.55 334 1.55 326 1.55 374 1.55
 280  0.917  0.042  0.167- 327 1.55 565 1.55 375 1.55 288 1.55
 281  0.917  0.042  0.667- 566 1.55 328 1.55 376 1.55 289 1.55
 282  0.917  0.292  0.167- 329 1.55 567 1.55 290 1.55 377 1.55
 283  0.917  0.292  0.667- 568 1.55 330 1.55 291 1.55 378 1.55
 284  0.917  0.542  0.167- 331 1.55 569 1.55 379 1.55 292 1.55
 285  0.917  0.542  0.667- 332 1.54 570 1.55 380 1.55 293 1.55
 286  0.917  0.792  0.167- 333 1.55 381 1.55 571 1.55 294 1.55
 287  0.917  0.792  0.667- 572 1.55 382 1.55 295 1.55 334 1.55
 288  1.000  1.000  0.125-   1 1.55 240 1.55 198 1.55 280 1.55
 289  0.000  1.000  0.625-   2 1.55 241 1.55 199 1.55 281 1.55
 290  1.000  0.250  0.125- 242 1.55   3 1.55 192 1.55 282 1.55
 291  1.000  0.250  0.625-   4 1.55 283 1.55 243 1.55 193 1.55
 292  1.000  0.500  0.125-   5 1.55 244 1.55 194 1.55 284 1.55
 293  0.000  0.500  0.625-   6 1.55 195 1.55 245 1.55 285 1.55
 294  1.000  0.750  0.125-   7 1.55 246 1.55 196 1.55 286 1.55
 295  0.000  0.750  0.625-   8 1.55 197 1.55 247 1.55 287 1.55
 296  0.167  1.000  0.125-   9 1.55 206 1.55 240 1.55 248 1.55
 297  0.167  1.000  0.625- 241 1.55  10 1.55 207 1.55 249 1.55
 298  0.167  0.250  0.125- 250 1.55  11 1.55 242 1.55 200 1.55
 299  0.167  0.250  0.625-  12 1.55 243 1.55 201 1.55 251 1.55
 300  0.167  0.500  0.125-  13 1.55 244 1.55 202 1.55 252 1.55
 301  0.167  0.500  0.625- 245 1.55 203 1.55  14 1.55 253 1.55
 302  0.167  0.750  0.125- 204 1.55 246 1.55 254 1.55  15 1.55
 303  0.167  0.750  0.625-  16 1.55 255 1.55 205 1.55 247 1.55
 304  0.333  0.000  0.125- 214 1.55  17 1.55 256 1.55 248 1.55
 305  0.333  0.000  0.625-  18 1.55 215 1.55 249 1.55 257 1.55
 306  0.333  0.250  0.125-  19 1.55 208 1.55 250 1.55 258 1.55
 307  0.333  0.250  0.625- 209 1.55 251 1.55  20 1.55 259 1.55
 308  0.333  0.500  0.125- 252 1.55  21 1.55 210 1.55 260 1.55
 309  0.334  0.500  0.624- 211 1.54  22 1.55 253 1.55 261 1.55
 310  0.333  0.750  0.125-  23 1.55 212 1.55 254 1.55 262 1.55
 311  0.333  0.750  0.625-  24 1.55 263 1.55 255 1.55 213 1.55
 312  0.500  0.000  0.125- 222 1.55  25 1.55 264 1.55 256 1.55
 313  0.500  0.000  0.625- 223 1.55  26 1.55 257 1.55 265 1.55
 314  0.500  0.250  0.125-  27 1.54 216 1.55 258 1.55 266 1.55
 315  0.500  0.250  0.625-  28 1.55 217 1.55 259 1.55 267 1.55
 316  0.500  0.500  0.126- 260 1.55 268 1.55 218 1.55  29 1.55
 317  0.500  0.750  0.125- 220 1.54  30 1.54 270 1.55 262 1.55
 318  0.500  0.750  0.625- 263 1.55 271 1.55  31 1.55 221 1.55
 319  0.667  0.000  0.125- 230 1.55  32 1.55 272 1.55 264 1.55
 320  0.667  0.000  0.625-  33 1.55 231 1.55 273 1.55 265 1.55
 321  0.667  0.250  0.125-  34 1.55 224 1.55 274 1.55 266 1.55
 322  0.667  0.250  0.625- 225 1.54  35 1.55 275 1.55 267 1.55
 323  0.666  0.500  0.126- 276 1.55 226 1.55  36 1.55 268 1.55
 324  0.667  0.500  0.625- 277 1.54 227 1.55 269 1.55  37 1.55
 325  0.667  0.750  0.125-  38 1.55 278 1.55 270 1.55 228 1.55
 326  0.667  0.750  0.625-  39 1.55 271 1.55 279 1.55 229 1.55
 327  0.833  1.000  0.125-  40 1.55 280 1.55 238 1.55 272 1.55
 328  0.833  1.000  0.625- 281 1.55 239 1.55  41 1.55 273 1.55
 329  0.833  0.250  0.125-  42 1.55 282 1.55 232 1.55 274 1.55
 330  0.833  0.250  0.625- 283 1.55  43 1.55 233 1.55 275 1.55
 331  0.833  0.500  0.125-  44 1.55 284 1.55 234 1.55 276 1.55
 332  0.833  0.500  0.625- 285 1.54  45 1.55 235 1.55 277 1.55
 333  0.833  0.750  0.125- 286 1.55  46 1.55 278 1.55 236 1.55
 334  0.833  0.750  0.625-  47 1.55 279 1.55 237 1.55 287 1.55
 335  0.083  0.125  0.125- 200 1.55  48 1.55 240 1.55 192 1.55
 336  0.083  0.125  0.625- 193 1.55  49 1.55 241 1.55 201 1.55
 337  0.083  0.375  0.125- 202 1.55  50 1.55 194 1.55 242 1.55
 338  0.083  0.375  0.625- 195 1.55  51 1.55 243 1.55 203 1.55
 339  0.083  0.625  0.125-  52 1.55 244 1.55 204 1.55 196 1.55
 340  0.083  0.625  0.625-  53 1.55 245 1.55 205 1.55 197 1.55
 341  0.083  0.875  0.125- 246 1.55  54 1.55 198 1.55 206 1.55
 342  0.083  0.875  0.625-  55 1.55 247 1.55 199 1.55 207 1.55
 343  0.250  0.125  0.125-  56 1.55 248 1.55 200 1.55 208 1.55
 344  0.250  0.125  0.625- 249 1.55 201 1.55  57 1.55 209 1.55
 345  0.250  0.375  0.125- 210 1.54  58 1.54 202 1.55 250 1.55
 346  0.250  0.375  0.625-  59 1.55 203 1.55 251 1.55 211 1.55
 347  0.250  0.625  0.125-  60 1.55 204 1.55 252 1.55 212 1.55
 348  0.250  0.625  0.625-  61 1.54 213 1.54 253 1.55 205 1.55
 349  0.250  0.875  0.125- 254 1.55  62 1.55 206 1.55 214 1.55
 350  0.250  0.875  0.625-  63 1.55 207 1.55 215 1.55 255 1.55
 351  0.417  0.125  0.125- 256 1.55  64 1.55 208 1.55 216 1.55
 352  0.417  0.125  0.625- 257 1.55  65 1.55 209 1.55 217 1.55
 353  0.417  0.375  0.125-  66 1.55 258 1.55 210 1.55 218 1.55
 354  0.417  0.375  0.625- 211 1.54 259 1.55  67 1.55 219 1.56
 355  0.417  0.625  0.125-  68 1.55 212 1.55 220 1.55 260 1.55
 356  0.418  0.624  0.624- 221 1.54 261 1.55  69 1.56 213 1.56
 357  0.417  0.875  0.125- 262 1.54  70 1.55 214 1.55 222 1.55
 358  0.417  0.875  0.625-  71 1.55 215 1.55 223 1.55 263 1.55
 359  0.583  0.125  0.125- 264 1.55  72 1.55 224 1.55 216 1.55
 360  0.583  0.125  0.625- 265 1.55  73 1.55 217 1.55 225 1.55
 361  0.583  0.375  0.125-  74 1.55 266 1.55 226 1.55 218 1.55
 362  0.583  0.375  0.625- 267 1.54 227 1.54 219 1.55  75 1.55
 363  0.583  0.625  0.125- 220 1.55  76 1.55 228 1.55 268 1.55
 364  0.582  0.624  0.624- 221 1.54 269 1.55 229 1.56  77 1.56
 365  0.583  0.875  0.125- 270 1.54  78 1.55 230 1.55 222 1.55
 366  0.583  0.875  0.625-  79 1.55 231 1.55 223 1.55 271 1.55
 367  0.750  0.125  0.125-  80 1.55 272 1.55 232 1.55 224 1.55
 368  0.750  0.125  0.625- 273 1.55 233 1.55  81 1.55 225 1.55
 369  0.750  0.375  0.125-  82 1.54 234 1.55 226 1.55 274 1.55
 370  0.750  0.375  0.625-  83 1.55 235 1.55 275 1.55 227 1.55
 371  0.750  0.625  0.125-  84 1.54 236 1.55 228 1.55 276 1.55
 372  0.750  0.625  0.625-  85 1.54 229 1.54 277 1.55 237 1.55
 373  0.750  0.875  0.125-  86 1.55 278 1.55 238 1.55 230 1.55
 374  0.750  0.875  0.625-  87 1.55 239 1.55 231 1.55 279 1.55
 375  0.917  0.125  0.125-  88 1.55 192 1.55 280 1.55 232 1.55
 376  0.917  0.125  0.625- 193 1.55 281 1.55  89 1.55 233 1.55
 377  0.917  0.375  0.125- 194 1.55  90 1.55 234 1.55 282 1.55
 378  0.917  0.375  0.625- 195 1.55  91 1.55 283 1.55 235 1.55
 379  0.917  0.625  0.125- 196 1.55  92 1.55 284 1.55 236 1.55
 380  0.917  0.625  0.625-  93 1.55 285 1.55 237 1.55 197 1.55
 381  0.917  0.875  0.125-  94 1.55 198 1.55 286 1.55 238 1.55
 382  0.917  0.875  0.625- 287 1.55  95 1.55 199 1.55 239 1.55
 383  1.000  0.083  0.458-  49 1.55  89 1.55   2 1.55  96 1.55
 384  1.000  0.083  0.958-  97 1.55  48 1.55  88 1.55   1 1.55
 385  1.000  0.333  0.458-  51 1.55  91 1.55   4 1.55  98 1.55
 386  1.000  0.333  0.958-  50 1.55  99 1.55  90 1.55   3 1.55
 387  1.000  0.583  0.458- 100 1.55   6 1.55  53 1.55  93 1.55
 388  0.000  0.583  0.958-  52 1.55 101 1.55   5 1.55  92 1.55
 389  1.000  0.833  0.458-  95 1.55   8 1.55  55 1.55 102 1.55
 390  0.000  0.833  0.958- 103 1.55   7 1.55  54 1.55  94 1.55
 391  0.167  0.083  0.458-  10 1.54  57 1.55  49 1.55 104 1.55
 392  0.167  0.083  0.958- 105 1.55   9 1.55  56 1.55  48 1.55
 393  0.166  0.333  0.458-  59 1.54  51 1.55  12 1.55 106 1.55
 394  0.167  0.333  0.958- 107 1.55  58 1.55  11 1.55  50 1.55
 395  0.167  0.583  0.458- 108 1.55  14 1.55  53 1.55  61 1.55
 396  0.167  0.583  0.958-  13 1.55  60 1.55 109 1.55  52 1.55
 397  0.167  0.833  0.458-  55 1.55 110 1.55  63 1.55  16 1.55
 398  0.167  0.833  0.958- 111 1.55  15 1.55  62 1.55  54 1.55
 399  0.333  0.083  0.458-  18 1.55 112 1.55  57 1.55  65 1.55
 400  0.333  0.083  0.958-  17 1.55 113 1.55  56 1.55  64 1.55
 401  0.333  0.332  0.458-  67 1.54  20 1.54 114 1.55  59 1.55
 402  0.333  0.333  0.958-  19 1.55 115 1.55  58 1.55  66 1.55
 403  0.334  0.583  0.458- 116 1.54  22 1.55  61 1.55  69 1.56
 404  0.333  0.583  0.958-  60 1.55 117 1.55  68 1.55  21 1.55
 405  0.333  0.834  0.458-  24 1.54  63 1.54 118 1.55  71 1.55
 406  0.333  0.833  0.958- 119 1.55  23 1.55  62 1.55  70 1.55
 407  0.500  0.083  0.458-  26 1.55  65 1.55 120 1.55  73 1.55
 408  0.500  0.083  0.958-  25 1.55 121 1.55  72 1.55  64 1.55
 409  0.500  0.334  0.458- 122 1.54  28 1.55  67 1.55  75 1.56
 410  0.500  0.333  0.959- 123 1.54  27 1.54  66 1.55  74 1.55
 411  0.500  0.583  0.958-  68 1.55  29 1.55  76 1.55 125 1.55
 412  0.500  0.834  0.458-  31 1.54  71 1.55  79 1.55 126 1.55
 413  0.500  0.833  0.958- 127 1.55  30 1.55  78 1.55  70 1.55
 414  0.667  0.083  0.458-  33 1.55 128 1.55  81 1.55  73 1.55
 415  0.667  0.083  0.958-  32 1.55 129 1.55  80 1.55  72 1.55
 416  0.667  0.332  0.459-  35 1.54 130 1.55  83 1.55  75 1.55
 417  0.667  0.333  0.959-  34 1.55 131 1.55  82 1.55  74 1.55
 418  0.665  0.583  0.458- 132 1.54  37 1.55  85 1.56  77 1.56
 419  0.667  0.583  0.959- 133 1.54  84 1.54  76 1.55  36 1.55
 420  0.667  0.834  0.458-  39 1.54  87 1.54 134 1.55  79 1.55
 421  0.667  0.833  0.958- 135 1.55  38 1.55  86 1.55  78 1.55
 422  0.833  0.083  0.458-  81 1.54  41 1.54  89 1.55 136 1.55
 423  0.833  0.083  0.958- 137 1.55  40 1.55  88 1.55  80 1.55
 424  0.833  0.333  0.458-  83 1.55  91 1.55  43 1.55 138 1.55
 425  0.833  0.333  0.958- 139 1.55  90 1.55  82 1.55  42 1.55
 426  0.833  0.583  0.458- 140 1.55  45 1.55  93 1.55  85 1.55
 427  0.833  0.583  0.958-  92 1.55  44 1.55 141 1.55  84 1.55
 428  0.833  0.833  0.458- 142 1.55  95 1.55  87 1.55  47 1.55
 429  0.833  0.833  0.958- 143 1.55  46 1.55  86 1.55  94 1.55
 430  0.083  0.208  0.458-  12 1.55   4 1.55  49 1.55 144 1.55
 431  0.083  0.208  0.958-  11 1.55 145 1.55  48 1.55   3 1.55
 432  0.083  0.458  0.458-  14 1.54   6 1.54 146 1.55  51 1.55
 433  0.083  0.458  0.958- 147 1.55  13 1.55  50 1.55   5 1.55
 434  0.083  0.708  0.458-  53 1.55 148 1.55  16 1.55   8 1.55
 435  0.083  0.708  0.958-  15 1.55  52 1.55 149 1.55   7 1.55
 436  0.083  0.958  0.458-  10 1.55  55 1.55   2 1.55 150 1.55
 437  0.083  0.958  0.958- 151 1.55  54 1.55   9 1.55   1 1.55
 438  0.250  0.208  0.458-  20 1.54  57 1.54  12 1.55 152 1.55
 439  0.250  0.208  0.958- 153 1.55  56 1.55  11 1.55  19 1.55
 440  0.249  0.458  0.458-  14 1.54  22 1.54 154 1.55  59 1.55
 441  0.250  0.458  0.958-  13 1.55  58 1.55 155 1.55  21 1.55
 442  0.250  0.708  0.458- 156 1.55  16 1.55  24 1.55  61 1.55
 443  0.250  0.708  0.958-  60 1.55  23 1.55  15 1.55 157 1.55
 444  0.250  0.958  0.458-  63 1.54  10 1.55 158 1.55  18 1.55
 445  0.250  0.958  0.958- 159 1.55  62 1.55   9 1.55  17 1.55
 446  0.417  0.208  0.458-  65 1.55 160 1.55  20 1.55  28 1.55
 447  0.417  0.208  0.958-  64 1.55  19 1.55 161 1.55  27 1.55
 448  0.411  0.456  0.455- 573 1.09 162 1.52  22 1.52  67 1.52
 449  0.417  0.458  0.958-  21 1.55  66 1.55  29 1.55 163 1.55
 450  0.416  0.709  0.458-  24 1.54  69 1.54 164 1.55  31 1.55
 451  0.417  0.708  0.958-  23 1.55  30 1.55  68 1.55 165 1.55
 452  0.417  0.958  0.458-  71 1.54  18 1.55  26 1.55 166 1.55
 453  0.417  0.958  0.958-  70 1.55 167 1.55  17 1.55  25 1.55
 454  0.583  0.208  0.458-  73 1.55 168 1.55  35 1.55  28 1.55
 455  0.583  0.208  0.958-  72 1.55 169 1.55  34 1.55  27 1.55
 456  0.583  0.458  0.959-  36 1.55 171 1.55  74 1.55  29 1.55
 457  0.584  0.709  0.458-  39 1.54  77 1.55 172 1.55  31 1.55
 458  0.583  0.708  0.958-  38 1.55  30 1.55 173 1.55  76 1.55
 459  0.583  0.958  0.458-  79 1.54  33 1.55  26 1.55 174 1.55
 460  0.583  0.958  0.958-  78 1.55 175 1.55  32 1.55  25 1.55
 461  0.750  0.208  0.458-  35 1.54  81 1.54 176 1.55  43 1.55
 462  0.750  0.208  0.958- 177 1.55  80 1.55  42 1.55  34 1.55
 463  0.751  0.458  0.459-  45 1.54 178 1.55  83 1.55  37 1.55
 464  0.750  0.458  0.959-  44 1.55  82 1.55 179 1.55  36 1.55
 465  0.750  0.708  0.458- 180 1.55  39 1.55  47 1.55  85 1.55
 466  0.750  0.708  0.958-  38 1.55  84 1.55  46 1.55 181 1.55
 467  0.750  0.958  0.458-  87 1.55  41 1.55 182 1.55  33 1.55
 468  0.750  0.958  0.958- 183 1.55  86 1.55  40 1.55  32 1.55
 469  0.917  0.208  0.458-  43 1.55   4 1.55  89 1.55 184 1.55
 470  0.917  0.208  0.958- 185 1.55   3 1.55  42 1.55  88 1.55
 471  0.917  0.458  0.458-  45 1.54   6 1.54 186 1.55  91 1.55
 472  0.917  0.458  0.958- 187 1.55   5 1.55  90 1.55  44 1.55
 473  0.917  0.708  0.458-  93 1.55 188 1.55  47 1.55   8 1.55
 474  0.917  0.708  0.958-  92 1.55 189 1.55  46 1.55   7 1.55
 475  0.917  0.958  0.458-  41 1.55  95 1.55   2 1.55 190 1.55
 476  0.917  0.958  0.958- 191 1.55  94 1.55  40 1.55   1 1.55
 477  1.000  0.167  0.292- 144 1.55 192 1.55  96 1.55 184 1.55
 478  1.000  0.167  0.792- 193 1.55 145 1.55  97 1.55 185 1.55
 479  1.000  0.417  0.292- 146 1.55 186 1.55 194 1.55  98 1.55
 480  0.000  0.417  0.792- 195 1.55 147 1.55  99 1.55 187 1.55
 481  1.000  0.667  0.292- 196 1.55 100 1.55 188 1.55 148 1.55
 482  0.000  0.667  0.792- 197 1.55 101 1.55 149 1.55 189 1.55
 483  1.000  0.917  0.292- 102 1.55 198 1.55 150 1.55 190 1.55
 484  0.000  0.917  0.792- 199 1.55 103 1.55 151 1.55 191 1.55
 485  0.167  0.167  0.292- 152 1.55 104 1.55 200 1.55 144 1.55
 486  0.167  0.167  0.792- 201 1.55 145 1.55 105 1.55 153 1.55
 487  0.166  0.417  0.291- 154 1.54 146 1.55 202 1.55 106 1.55
 488  0.167  0.417  0.792- 203 1.55 107 1.55 147 1.55 155 1.55
 489  0.167  0.667  0.292- 148 1.55 204 1.55 108 1.55 156 1.55
 490  0.167  0.667  0.791- 157 1.55 205 1.55 109 1.55 149 1.55
 491  0.167  0.917  0.292- 150 1.55 110 1.55 206 1.55 158 1.55
 492  0.167  0.917  0.792- 207 1.55 111 1.55 159 1.55 151 1.55
 493  0.333  0.167  0.292- 112 1.55 208 1.55 152 1.55 160 1.55
 494  0.333  0.167  0.792- 113 1.55 209 1.55 161 1.55 153 1.55
 495  0.333  0.416  0.290- 210 1.54 162 1.54 154 1.55 114 1.55
 496  0.333  0.417  0.791- 155 1.55 163 1.55 115 1.55 211 1.55
 497  0.333  0.667  0.291- 212 1.54 156 1.55 164 1.55 116 1.55
 498  0.334  0.666  0.791- 165 1.55 117 1.55 157 1.55 213 1.55
 499  0.333  0.917  0.292- 118 1.54 158 1.55 214 1.55 166 1.55
 500  0.333  0.917  0.792- 215 1.55 119 1.55 167 1.55 159 1.55
 501  0.500  0.167  0.292- 120 1.55 216 1.55 160 1.55 168 1.55
 502  0.500  0.167  0.792- 121 1.55 217 1.55 161 1.55 169 1.55
 503  0.500  0.417  0.293- 122 1.54 162 1.55 218 1.55 170 1.55
 504  0.500  0.416  0.793- 123 1.54 163 1.55 171 1.55 219 1.55
 505  0.500  0.668  0.290- 220 1.54 124 1.54 164 1.55 172 1.55
 506  0.500  0.667  0.791- 165 1.55 173 1.55 125 1.55 221 1.55
 507  0.500  0.917  0.292- 126 1.54 222 1.55 166 1.55 174 1.55
 508  0.500  0.917  0.792- 223 1.55 127 1.55 167 1.55 175 1.55
 509  0.667  0.167  0.292- 128 1.55 224 1.55 176 1.55 168 1.55
 510  0.667  0.167  0.792- 129 1.55 225 1.55 169 1.55 177 1.55
 511  0.667  0.417  0.292- 226 1.54 178 1.55 130 1.55 170 1.57
 512  0.667  0.417  0.792- 179 1.55 131 1.55 171 1.55 227 1.55
 513  0.667  0.667  0.292- 228 1.55 180 1.55 172 1.55 132 1.55
 514  0.666  0.666  0.791- 173 1.55 133 1.55 181 1.55 229 1.55
 515  0.667  0.917  0.292- 134 1.54 182 1.55 230 1.55 174 1.55
 516  0.667  0.917  0.792- 231 1.55 135 1.55 175 1.55 183 1.55
 517  0.833  0.167  0.292- 176 1.55 232 1.55 184 1.55 136 1.55
 518  0.833  0.167  0.792- 233 1.55 137 1.55 185 1.55 177 1.55
 519  0.833  0.417  0.292- 234 1.55 186 1.55 178 1.55 138 1.55
 520  0.833  0.417  0.792- 187 1.55 235 1.55 139 1.55 179 1.55
 521  0.833  0.667  0.292- 236 1.55 188 1.55 180 1.55 140 1.55
 522  0.833  0.667  0.792- 181 1.55 237 1.55 141 1.55 189 1.55
 523  0.833  0.917  0.292- 190 1.55 142 1.55 238 1.55 182 1.55
 524  0.833  0.917  0.792- 239 1.55 143 1.55 191 1.55 183 1.55
 525  0.083  0.042  0.292- 104 1.55 150 1.55 240 1.55  96 1.55
 526  0.083  0.042  0.792- 241 1.55 105 1.55 151 1.55  97 1.55
 527  0.083  0.292  0.292- 106 1.55 242 1.55 144 1.55  98 1.55
 528  0.083  0.292  0.792- 243 1.55 107 1.55 145 1.55  99 1.55
 529  0.083  0.542  0.292- 244 1.55 100 1.55 108 1.55 146 1.55
 530  0.083  0.542  0.792- 245 1.55 109 1.55 147 1.55 101 1.55
 531  0.083  0.792  0.292- 148 1.55 102 1.55 110 1.55 246 1.55
 532  0.083  0.792  0.792- 247 1.55 111 1.55 149 1.55 103 1.55
 533  0.250  0.042  0.292- 158 1.55 104 1.55 248 1.55 112 1.55
 534  0.250  0.042  0.792- 249 1.55 159 1.55 105 1.55 113 1.55
 535  0.250  0.292  0.291- 114 1.54 250 1.55 152 1.55 106 1.55
 536  0.250  0.292  0.792- 251 1.55 153 1.55 107 1.55 115 1.55
 537  0.250  0.542  0.292- 252 1.54 108 1.55 154 1.55 116 1.55
 538  0.250  0.542  0.791- 155 1.55 117 1.55 109 1.55 253 1.55
 539  0.250  0.792  0.292- 110 1.55 254 1.55 156 1.55 118 1.55
 540  0.250  0.792  0.792- 255 1.55 157 1.55 119 1.55 111 1.55
 541  0.417  0.042  0.292- 166 1.55 256 1.55 112 1.55 120 1.55
 542  0.417  0.042  0.792- 257 1.55 167 1.55 113 1.55 121 1.55
 543  0.417  0.292  0.292- 258 1.55 160 1.55 114 1.55 122 1.55
 544  0.417  0.292  0.792- 161 1.55 115 1.55 123 1.55 259 1.55
 545  0.417  0.542  0.293- 116 1.54 162 1.55 260 1.55 124 1.56
 546  0.417  0.542  0.792- 117 1.54 125 1.55 163 1.55 261 1.57
 547  0.417  0.792  0.291- 164 1.54 262 1.55 118 1.55 126 1.55
 548  0.417  0.792  0.792- 263 1.55 119 1.55 127 1.55 165 1.55
 549  0.583  0.042  0.292- 174 1.55 264 1.55 128 1.55 120 1.55
 550  0.583  0.042  0.792- 175 1.55 265 1.55 129 1.55 121 1.55
 551  0.583  0.292  0.292- 266 1.55 130 1.55 168 1.55 122 1.55
 552  0.583  0.292  0.792- 169 1.54 131 1.55 123 1.55 267 1.55
 553  0.583  0.542  0.294- 132 1.54 170 1.55 124 1.56 268 1.56
 554  0.584  0.542  0.793- 133 1.54 125 1.55 171 1.55 269 1.55
 555  0.583  0.792  0.291- 172 1.54 270 1.55 134 1.55 126 1.55
 556  0.583  0.792  0.792- 271 1.55 135 1.55 127 1.55 173 1.55
 557  0.750  0.042  0.292- 182 1.55 136 1.55 272 1.55 128 1.55
 558  0.750  0.042  0.792- 273 1.55 183 1.55 137 1.55 129 1.55
 559  0.750  0.292  0.292- 274 1.55 138 1.55 176 1.55 130 1.55
 560  0.750  0.292  0.792- 177 1.55 275 1.55 139 1.55 131 1.55
 561  0.750  0.542  0.292- 276 1.54 140 1.55 178 1.55 132 1.55
 562  0.750  0.542  0.792- 141 1.54 179 1.55 133 1.55 277 1.55
 563  0.750  0.792  0.292- 142 1.55 278 1.55 134 1.55 180 1.55
 564  0.750  0.792  0.792- 279 1.55 181 1.55 135 1.55 143 1.55
 565  0.917  0.042  0.292- 136 1.55 280 1.55  96 1.55 190 1.55
 566  0.917  0.042  0.792- 281 1.55 191 1.55 137 1.55  97 1.55
 567  0.917  0.292  0.292-  98 1.55 282 1.55 184 1.55 138 1.55
 568  0.917  0.292  0.792- 283 1.55 139 1.55  99 1.55 185 1.55
 569  0.917  0.542  0.292- 284 1.55 100 1.55 186 1.55 140 1.55
 570  0.917  0.542  0.792- 285 1.55 101 1.55 141 1.55 187 1.55
 571  0.917  0.792  0.292- 142 1.55 286 1.55 188 1.55 102 1.55
 572  0.917  0.792  0.792- 287 1.55 189 1.55 143 1.55 103 1.55
 573  0.470  0.484  0.485- 448 1.09
 574  0.502  0.499  0.633- 269 1.49 219 1.49 261 1.51
 575  0.590  0.455  0.458-  37 1.49  75 1.49 170 1.51
 576  0.500  0.591  0.454- 124 1.48  69 1.48  77 1.48
 
  LATTYP: Found a simple monoclinic cell.
 ALAT       =    12.3703241348
 B/A-ratio  =     1.2248453018
 C/A-ratio  =     1.4141600350
 COS(beta)  =    -0.0000282295
  
  Lattice vectors:
  
 A1 = (   0.0000000000,  -0.0003492082,  12.3703241299)
 A2 = (  15.1517333984,   0.0000000000,   0.0000000000)
 A3 = (   0.0000000000,  17.4936180115,   0.0000000000)


Analysis of symmetry for initial positions (statically):
=====================================================================
 Subroutine PRICEL returns:
 Original cell was already a primitive cell.
 

 Routine SETGRP: Setting up the symmetry group for a 
 simple monoclinic supercell.


 Subroutine GETGRP returns: Found  1 space group operations
 (whereof  1 operations were pure point group operations)
 out of a pool of  4 trial point group operations.


The static configuration has the point symmetry C_1 .


Analysis of symmetry for dynamics (positions and initial velocities):
=====================================================================
 Subroutine PRICEL returns:
 Original cell was already a primitive cell.
 

 Routine SETGRP: Setting up the symmetry group for a 
 simple monoclinic supercell.


 Subroutine GETGRP returns: Found  1 space group operations
 (whereof  1 operations were pure point group operations)
 out of a pool of  4 trial point group operations.


The dynamic configuration has the point symmetry C_1 .


Analysis of structural, dynamic, and magnetic symmetry:
=====================================================================
 Subroutine PRICEL returns:
 Original cell was already a primitive cell.
 

 Routine SETGRP: Setting up the symmetry group for a 
 simple monoclinic supercell.


 Subroutine GETGRP returns: Found  1 space group operations
 (whereof  1 operations were pure point group operations)
 out of a pool of  4 trial point group operations.


The overall configuration has the point symmetry C_1 .


 Subroutine INISYM returns: Found  1 space group operations
 (whereof  1 operations are pure point group operations),
 and found     1 'primitive' translations


----------------------------------------------------------------------------------------

                                     Primitive cell                                     

  volume of cell :    3278.8612

  direct lattice vectors                    reciprocal lattice vectors
    15.151733398  0.000000000  0.000000000     0.065999049  0.000000000  0.000000000
     0.000000000 17.493618012  0.000000000     0.000000000  0.057163704  0.000001614
     0.000000000 -0.000349208 12.370324130     0.000000000  0.000000000  0.080838626

  length of vectors
    15.151733398 17.493618012 12.370324135     0.065999049  0.057163704  0.080838626

  position of ions in fractional coordinates (direct lattice)
     0.999990669  0.999970083  0.999984375
     0.999985731  0.999934639  0.500013290
     0.999964477  0.249988033  0.999945892
     0.999958002  0.249940404  0.499964665
     0.999982903  0.499999835  0.000009865
     0.999987685  0.499944149  0.499971630
     0.000008370  0.749961665  0.999960623
     0.999973159  0.749953545  0.500020047
     0.166651950  0.999986101  0.999983285
     0.166578957  0.999982430  0.500003559
     0.166605046  0.249977039  0.999900377
     0.166527364  0.249873031  0.499947078
     0.166673403  0.499980746  0.999932809
     0.166125618  0.499881551  0.499811866
     0.166706998  0.749953335  0.999872254
     0.166674200  0.749979501  0.499958803
     0.333333937  0.000028569  0.999961595
     0.333295900  0.000064888  0.499996250
     0.333320136  0.249995189  0.000014424
     0.332907913  0.249555383  0.499898024
     0.333418380  0.500050043  0.000169380
     0.332189140  0.499276675  0.499042394
     0.333360294  0.749991237  0.999857994
     0.333128835  0.750554216  0.499783765
     0.500006557  0.000041603  0.999961185
     0.499991789  0.000073981  0.499995923
     0.499997293  0.249920238  0.000344780
     0.500026975  0.250214046  0.500024939
     0.500007683  0.500005137  0.000345094
     0.499997452  0.750087090  0.999765845
     0.499940906  0.750530855  0.499859692
     0.666671045  0.000020161  0.999998035
     0.666689355  0.000054179  0.500005381
     0.666651387  0.249994422  0.000167881
     0.667042820  0.249527066  0.500098312
     0.666573459  0.500059767  0.000579620
     0.666297516  0.499194256  0.500186567
     0.666629791  0.749984193  0.999969063
     0.666737682  0.750442143  0.499880200
     0.833337585  0.999986381  0.000007253
     0.833408440  0.999953782  0.500006918
     0.833315275  0.249998354  0.000021320
     0.833389929  0.249878618  0.500042062
     0.833293788  0.500004211  0.000189190
     0.833796730  0.499880651  0.500078013
     0.833299904  0.749959447  0.999970165
     0.833253010  0.749936061  0.500018185
     0.083300292  0.124980308  0.999947451
     0.083253213  0.124930517  0.499975306
     0.083260523  0.374974444  0.999864810
     0.083181759  0.374933075  0.499933515
     0.083359610  0.624970595  0.999954281
     0.083428175  0.624997663  0.499951073
     0.083331950  0.874961163  0.999960934
     0.083297592  0.874956398  0.500004188
     0.249979344  0.124995440  0.999959548
     0.249829654  0.124851691  0.499965913
     0.249880593  0.374933590  0.999767295
     0.249639147  0.374795589  0.499866197
     0.250019578  0.624980380  0.999999344
     0.250685749  0.624992859  0.499801679
     0.250009696  0.874992118  0.999923291
     0.249909003  0.875164446  0.499952604
     0.416657793  0.125011131  0.000020277
     0.416659171  0.125023065  0.500002990
     0.416700832  0.374967077  0.000258680
     0.415384412  0.374384095  0.499331362
     0.416677430  0.624977889  0.000064168
     0.418342777  0.625952988  0.497932078
     0.416674733  0.875062108  0.999848331
     0.416618541  0.875227427  0.499931825
     0.583335871  0.125000920  0.000081105
     0.583322398  0.125017202  0.500031032
     0.583294851  0.374962381  0.000472066
     0.583866081  0.375405693  0.500244224
     0.583340791  0.624968944  0.000291885
     0.581313155  0.625634559  0.498235083
     0.583328815  0.875055555  0.999875542
     0.583347378  0.875206190  0.499941279
     0.749999571  0.125000945  0.000037370
     0.750155210  0.124815801  0.500015850
     0.750002926  0.374979482  0.000129014
     0.750111493  0.374867955  0.500238697
     0.750046962  0.625022946  0.000375034
     0.749087347  0.624858649  0.500048734
     0.749994900  0.874982473  0.999968462
     0.750042629  0.875122297  0.499965895
     0.916655816  0.124985055  0.999971315
     0.916689664  0.124932296  0.499996580
     0.916633137  0.374998913  0.999998335
     0.916690487  0.374946087  0.500031079
     0.916670260  0.624986574  0.000083896
     0.916461079  0.624983276  0.500027846
     0.916664098  0.874962995  0.999976710
     0.916666387  0.874941641  0.500003918
     0.999964236  0.083286977  0.333314508
     0.999994700  0.083303736  0.833322564
     0.999899634  0.333295331  0.333293849
     0.999982555  0.333324774  0.833275477
     0.999911070  0.583313285  0.333349831
     0.000048770  0.583305828  0.833343553
     0.999969773  0.833300898  0.333331241
     0.000010642  0.833274666  0.833317266
     0.166573046  0.083293274  0.333288376
     0.166664456  0.083311111  0.833302152
     0.166502764  0.333257820  0.333208095
     0.166669605  0.333311135  0.833176319
     0.166628100  0.583344022  0.333263297
     0.166831515  0.583250465  0.833173899
     0.166619086  0.833368004  0.333285712
     0.166715976  0.833259926  0.833267639
     0.333262317  0.083366147  0.333313400
     0.333317152  0.083331764  0.833312105
     0.332972596  0.333093690  0.333114237
     0.333406807  0.333338341  0.833253426
     0.333227371  0.583390662  0.333241743
     0.333497762  0.583236404  0.833385510
     0.333207381  0.833597932  0.333170013
     0.333364875  0.833286735  0.833214092
     0.499980760  0.083390646  0.333373266
     0.500007802  0.083351074  0.833336589
     0.499879446  0.333499946  0.333791060
     0.500077483  0.333048222  0.834133836
     0.499738694  0.585254385  0.335096556
     0.500176343  0.583216097  0.833364375
     0.499964361  0.833592755  0.333202661
     0.500008911  0.833331156  0.833211972
     0.666691109  0.083371693  0.333349635
     0.666699160  0.083308291  0.833373462
     0.666579054  0.333302979  0.333699523
     0.666687456  0.333288704  0.833535553
     0.666305556  0.583294267  0.333808644
     0.666906459  0.583346445  0.834098209
     0.666705431  0.833547645  0.333225227
     0.666656921  0.833293980  0.833254363
     0.833350848  0.083300845  0.333314978
     0.833328768  0.083300479  0.833347020
     0.833230217  0.333320256  0.333431939
     0.833321855  0.333313703  0.833364771
     0.833105741  0.583309382  0.333487199
     0.833335402  0.583286218  0.833448094
     0.833302074  0.833338121  0.333316899
     0.833305518  0.833271424  0.833301805
     0.083259975  0.208284438  0.333275298
     0.083327902  0.208318364  0.833274502
     0.083133000  0.458288401  0.333230215
     0.083390139  0.458321777  0.833285971
     0.083297017  0.708331269  0.333345205
     0.083426928  0.708260616  0.833245278
     0.083299330  0.958307390  0.333330312
     0.083350890  0.958286202  0.833340956
     0.249831233  0.208216494  0.333277127
     0.249995452  0.208334260  0.833308106
     0.249480785  0.458237732  0.333005166
     0.250177355  0.458306079  0.833226444
     0.249932719  0.708434262  0.333261893
     0.250222760  0.708201041  0.833004766
     0.249929132  0.958421086  0.333317267
     0.250009755  0.958310879  0.833348757
     0.416603808  0.208348091  0.333405532
     0.416643172  0.208334674  0.833347237
     0.415171879  0.457737792  0.332915485
     0.416834962  0.458208014  0.833362583
     0.416399902  0.708933203  0.332871003
     0.416775181  0.708210957  0.833090776
     0.416614621  0.958462941  0.333288224
     0.416657203  0.958351451  0.833285745
     0.583320253  0.208382223  0.333485521
     0.583390868  0.208289315  0.833481448
     0.582804603  0.458528445  0.336358731
     0.583478514  0.458227413  0.833739995
     0.583365051  0.708840673  0.333017876
     0.583314599  0.708212850  0.833189665
     0.583356461  0.958455887  0.333299797
     0.583355330  0.958344095  0.833300346
     0.750016172  0.208280211  0.333412824
     0.750007546  0.208304040  0.833427451
     0.749924249  0.458334009  0.333683076
     0.749976344  0.458313134  0.833572344
     0.749893694  0.708371126  0.333428477
     0.749866165  0.708243475  0.833153201
     0.750028956  0.958405224  0.333330330
     0.750003795  0.958305232  0.833372741
     0.916615924  0.208302311  0.333326151
     0.916639475  0.208317052  0.833320731
     0.916596378  0.458296874  0.333384357
     0.916661708  0.458329956  0.833398371
     0.916592368  0.708313928  0.333407327
     0.916625732  0.708274999  0.833294912
     0.916648812  0.958295940  0.333332885
     0.916648804  0.958287638  0.833348978
     0.999955690  0.166640475  0.166616361
     0.999987681  0.166624578  0.666642668
     0.999904948  0.416635647  0.166603087
     0.000018679  0.416639396  0.666649681
     0.999964139  0.666657207  0.166684220
     0.000019647  0.666601559  0.666613331
     0.999984242  0.916635818  0.166637604
     0.000001175  0.916605165  0.666674877
     0.166573591  0.166631210  0.166587096
     0.166629280  0.166636206  0.666637520
     0.166463811  0.416610968  0.166439940
     0.166752263  0.416635536  0.666561845
     0.166617160  0.666685005  0.166649392
     0.166927391  0.666547864  0.666469293
     0.166632314  0.916678866  0.166628227
     0.166668472  0.916618854  0.666680663
     0.333281569  0.166674646  0.166670257
     0.333317832  0.166671515  0.666674648
     0.332849978  0.416480425  0.166207622
     0.333657833  0.416643057  0.666318888
     0.333265518  0.666768128  0.166599264
     0.333991671  0.666274106  0.665722145
     0.333300805  0.916777765  0.166561315
     0.333337306  0.916684077  0.666643620
     0.499981510  0.166677783  0.166789382
     0.500009005  0.166742806  0.666657147
     0.499970170  0.416764891  0.167500812
     0.500534969  0.417098511  0.666973248
     0.499918234  0.667141153  0.166199402
     0.500094868  0.666387432  0.666273421
     0.499995814  0.916790644  0.166560880
     0.500001434  0.916709965  0.666613752
     0.666652079  0.166694473  0.166762726
     0.666730085  0.166601204  0.666769327
     0.666697070  0.416626217  0.166980552
     0.666638015  0.416600153  0.666813441
     0.666600025  0.666730299  0.166860108
     0.666156508  0.666317262  0.665902669
     0.666683182  0.916763327  0.166598214
     0.666666630  0.916676610  0.666652434
     0.833322743  0.166666353  0.166661167
     0.833362541  0.166607458  0.666695485
     0.833275814  0.416653277  0.166774982
     0.833341008  0.416627326  0.666786934
     0.833286500  0.666676329  0.166852988
     0.833140142  0.666564975  0.666586882
     0.833334469  0.916673300  0.166645285
     0.833334347  0.916613374  0.666683389
     0.083302600  0.041640708  0.166621134
     0.083326162  0.041622071  0.666670779
     0.083254277  0.291635162  0.166557915
     0.083323903  0.291635151  0.666579100
     0.083285267  0.541657194  0.166632687
     0.083457656  0.541618431  0.666624405
     0.083323996  0.791650698  0.166609002
     0.083376718  0.791600558  0.666636866
     0.249962283  0.041688751  0.166600794
     0.249967069  0.041647700  0.666648779
     0.249845447  0.291591373  0.166493127
     0.250020896  0.291646248  0.666565527
     0.249928912  0.541692146  0.166638979
     0.250576285  0.541467392  0.666318031
     0.249963895  0.791721207  0.166548997
     0.250087544  0.791575116  0.666568660
     0.416638280  0.041723255  0.166635857
     0.416649218  0.041705628  0.666648537
     0.416608486  0.291667523  0.166827586
     0.416752976  0.291879807  0.666549318
     0.416851458  0.541895291  0.167422934
     0.418525088  0.540679325  0.665133263
     0.416603635  0.791894722  0.166398257
     0.416708980  0.791647715  0.666533040
     0.583347766  0.041723071  0.166660187
     0.583355045  0.041691554  0.666663888
     0.583286580  0.291705009  0.166994757
     0.583462112  0.291711962  0.666804208
     0.582901475  0.541830050  0.167917745
     0.582974331  0.540848317  0.666915635
     0.583330604  0.791868597  0.166465742
     0.583316975  0.791651921  0.666559959
     0.750015125  0.041698083  0.166632291
     0.750041885  0.041618572  0.666673474
     0.749966025  0.291669928  0.166748451
     0.750025034  0.291595641  0.666743161
     0.749840767  0.541691155  0.167034491
     0.749856522  0.541461223  0.666741500
     0.749977335  0.791696348  0.166628935
     0.749925721  0.791584767  0.666599184
     0.916646864  0.041642700  0.166631246
     0.916668396  0.041609419  0.666675544
     0.916605609  0.291655424  0.166649973
     0.916656779  0.291625641  0.666650347
     0.916576924  0.541666397  0.166759454
     0.916672253  0.541621263  0.666734943
     0.916634324  0.791644930  0.166645534
     0.916632549  0.791599572  0.666655397
     0.999980974  0.999968912  0.124955935
     0.000003981  0.999944461  0.625005478
     0.999938261  0.249984700  0.124922358
     0.999980960  0.249966835  0.624949217
     0.999930296  0.500007978  0.124982584
     0.000051925  0.499999527  0.624993901
     0.999987786  0.749983108  0.124956494
     0.000005254  0.749941983  0.624989911
     0.166631904  0.999995883  0.124944759
     0.166635778  0.999955372  0.624995177
     0.166566867  0.249958686  0.124845261
     0.166640333  0.249962914  0.624930086
     0.166599522  0.499999882  0.124888779
     0.166779270  0.499980855  0.624853172
     0.166652521  0.749998443  0.124894841
     0.166735348  0.749930199  0.624915874
     0.333317778  0.000054218  0.124918938
     0.333324094  0.000019869  0.624975610
     0.333288113  0.249997096  0.124966625
     0.333344961  0.249959335  0.624946334
     0.333325470  0.500059693  0.125220093
     0.334025487  0.499698653  0.624139353
     0.333300207  0.750080928  0.124825031
     0.333457712  0.749944288  0.624732546
     0.500000482  0.000065006  0.124940454
     0.499999964  0.000034072  0.624976709
     0.499976685  0.249973688  0.125199143
     0.500057019  0.250090143  0.625010480
     0.499936618  0.500078932  0.125614993
     0.499970219  0.750254172  0.124562484
     0.500016096  0.750012858  0.624843538
     0.666677955  0.000054734  0.124946715
     0.666678510  0.000003937  0.624989893
     0.666613512  0.250026327  0.125120462
     0.666726476  0.249829121  0.625110030
     0.666445529  0.500062298  0.125706338
     0.666692268  0.499878174  0.625159396
     0.666629620  0.750049818  0.124955938
     0.666568599  0.749938767  0.624824115
     0.833337854  0.999997005  0.124958797
     0.833364326  0.999935104  0.625000622
     0.833289622  0.250008190  0.124982011
     0.833345920  0.249933927  0.625028112
     0.833241320  0.500018882  0.125151059
     0.833426628  0.499987779  0.625091826
     0.833304433  0.749983990  0.124989298
     0.833274882  0.749926998  0.624971976
     0.083274727  0.124969400  0.124920868
     0.083297094  0.124950616  0.624973517
     0.083199909  0.374978842  0.124810768
     0.083330764  0.374991549  0.624938674
     0.083294165  0.624999348  0.124952806
     0.083448860  0.624950813  0.624908527
     0.083311006  0.874976068  0.124946725
     0.083332755  0.874940984  0.624999094
     0.249953974  0.125004936  0.124933368
     0.249956197  0.124960919  0.624982917
     0.249755523  0.374918742  0.124517286
     0.250057209  0.374973326  0.624847757
     0.249934713  0.625047009  0.124936895
     0.250446701  0.624828761  0.624649978
     0.249976491  0.875044899  0.124901504
     0.250012868  0.874983476  0.624957181
     0.416650229  0.125021207  0.125001212
     0.416680845  0.125022913  0.624995967
     0.416610730  0.375025763  0.125187959
     0.416849428  0.375254130  0.624545244
     0.416647499  0.625137332  0.125018619
     0.417891080  0.624297795  0.623644342
     0.416645221  0.875138416  0.124796328
     0.416669035  0.875041996  0.624931176
     0.583320311  0.125019135  0.125048925
     0.583338968  0.125006673  0.625025238
     0.583276086  0.375052056  0.125426695
     0.583439138  0.374880664  0.625231486
     0.583210311  0.625092150  0.125287520
     0.582366902  0.624254225  0.624037908
     0.583338755  0.875122271  0.124832229
     0.583330765  0.875036742  0.624941247
     0.749989344  0.125023848  0.125002723
     0.750051502  0.124907844  0.625034314
     0.749970189  0.375012836  0.125008099
     0.750032298  0.374940358  0.625194767
     0.749976568  0.625051402  0.125256380
     0.749683114  0.624819741  0.624882513
     0.750000064  0.875024778  0.124947816
     0.749989060  0.874977356  0.624969485
     0.916638834  0.124980552  0.124945052
     0.916682964  0.124937106  0.624999412
     0.916598210  0.375009581  0.124965730
     0.916673363  0.374985419  0.625035771
     0.916631696  0.625008476  0.125077980
     0.916588645  0.624946648  0.624981000
     0.916662332  0.874974226  0.124963636
     0.916667895  0.874932665  0.624999562
     0.999973140  0.083262436  0.458328234
     0.999984697  0.083309242  0.958295659
     0.999920051  0.333291582  0.458322976
     0.999952467  0.333335571  0.958249220
     0.999940921  0.583313787  0.458330075
     0.000019710  0.583338503  0.958333181
     0.999978422  0.833276248  0.458343732
     0.000004242  0.833292137  0.958298560
     0.166549156  0.083233256  0.458314565
     0.166653766  0.083315806  0.958276553
     0.166449545  0.333226869  0.458262854
     0.166594861  0.333306244  0.958089194
     0.166843646  0.583300062  0.458200155
     0.166719606  0.583310403  0.958213236
     0.166638899  0.833351158  0.458293558
     0.166687038  0.833289353  0.958244221
     0.333279383  0.083333291  0.458317651
     0.333330150  0.083336223  0.958282892
     0.332764499  0.332405262  0.458332317
     0.333347611  0.333325743  0.958277765
     0.334237997  0.582953782  0.457662597
     0.333318666  0.583360893  0.958354663
     0.333139430  0.833697373  0.458220483
     0.333348597  0.833323238  0.958187424
     0.499991307  0.083346939  0.458372171
     0.500005792  0.083349086  0.958323246
     0.499861175  0.333718384  0.458492073
     0.500018392  0.333107951  0.958810534
     0.500022156  0.583313362  0.958441016
     0.499966688  0.833671257  0.458244624
     0.500006656  0.833381722  0.958140406
     0.666700993  0.083320731  0.458347806
     0.666673984  0.083325055  0.958345660
     0.666954127  0.332425307  0.458835522
     0.666645443  0.333318798  0.958527111
     0.665265302  0.582817789  0.458225667
     0.666854837  0.583420084  0.958846458
     0.666774983  0.833620264  0.458261049
     0.666656135  0.833318101  0.958239901
     0.833410358  0.083209324  0.458337079
     0.833324434  0.083313887  0.958319128
     0.833354381  0.333262945  0.458466694
     0.833313064  0.333336527  0.958306112
     0.832978508  0.583249659  0.458397789
     0.833344874  0.583346795  0.958475455
     0.833304787  0.833310391  0.458319277
     0.833322765  0.833287942  0.958287482
     0.083256076  0.208255833  0.458296315
     0.083307645  0.208320619  0.958253056
     0.083042479  0.458352830  0.458283690
     0.083335156  0.458338875  0.958261671
     0.083332935  0.708324777  0.458334055
     0.083380419  0.708294111  0.958246968
     0.083304650  0.958280523  0.458342047
     0.083341281  0.958298479  0.958312446
     0.249783857  0.208017581  0.458318600
     0.249980141  0.208332247  0.958282729
     0.248800533  0.458410952  0.458173963
     0.250050919  0.458342445  0.958281500
     0.250055419  0.708439529  0.458237416
     0.250089398  0.708265407  0.958128396
     0.249913215  0.958423899  0.458342945
     0.250003069  0.958326432  0.958312495
     0.416626779  0.208309236  0.458379874
     0.416655685  0.208316892  0.958382717
     0.410768144  0.455526152  0.455231077
     0.416684190  0.458321038  0.958472892
     0.416074410  0.709446487  0.457976186
     0.416683038  0.708297439  0.958168632
     0.416625194  0.958457323  0.458310491
     0.416658805  0.958369012  0.958247124
     0.583373345  0.208303663  0.458442416
     0.583339550  0.208292638  0.958468825
     0.583386079  0.458302120  0.958725704
     0.583666711  0.709267811  0.458146851
     0.583334986  0.708285002  0.958278472
     0.583356804  0.958446346  0.458316028
     0.583348828  0.958361616  0.958266473
     0.750149451  0.207997765  0.458435220
     0.749982270  0.208327240  0.958392534
[...]
 196      -0.003     0.000     0.005       0.613
 197      -0.004    -0.002     0.008       0.290
 198       0.002    -0.000    -0.002       1.005
 199       0.003     0.000    -0.003       0.695
 200      -0.002    -0.001     0.002       0.305
 201      -0.004    -0.001     0.005       0.534
 202       0.006     0.001    -0.008       0.710
 203       0.014    -0.011    -0.016       1.595
 204       0.015     0.009     0.022      -0.257
 205       0.003     0.001     0.025      -0.082
 206      -0.002    -0.001     0.002       0.412
 207      -0.003    -0.000     0.004       0.719
 208       0.004    -0.002    -0.005       1.070
 209      -0.002    -0.001     0.016       0.037
 210       0.025     0.014     0.054      -0.205
 211      -0.089    -0.001    -0.101      -0.872
 212       0.008    -0.001    -0.009       1.043
 213      -0.056    -0.018    -0.064      -0.591
 214      -0.003    -0.001     0.004       0.449
 215      -0.004    -0.003     0.007       0.086
 216      -0.004     0.004     0.013       0.611
 217       0.010    -0.010    -0.014       1.461
 218      -0.063    -0.015    -0.071      -0.675
 219      -1.071    -0.842    -1.135      -0.203
 220       0.006    -0.002     0.031      -0.259
 221      -0.088    -0.002    -0.101      -0.862
 222      -0.005    -0.001     0.006       0.694
 223      -0.006    -0.005     0.009       0.203
 224       0.005     0.000     0.016      -0.305
 225      -0.005    -0.002     0.017       0.207
 226       0.551     0.547     0.800      -0.004
 227      -0.136    -0.052    -0.173      -0.487
 228      -0.009     0.009    -0.015      -1.203
 229       0.028    -0.022    -0.030       1.674
 230      -0.004    -0.001     0.005       0.578
 231      -0.005    -0.004     0.008       0.114
 232      -0.004     0.003    -0.005      -1.384
 233      -0.004    -0.003     0.008       0.095
 234      -0.018     0.000    -0.028      -0.647
 235      -0.019     0.013    -0.028      -1.154
 236      -0.004     0.002     0.010       0.675
 237      -0.009     0.009    -0.012      -1.459
 238      -0.002    -0.001     0.004       0.150
 239      -0.002     0.000     0.006       0.314
 240       0.002    -0.000    -0.002       0.844
 241       0.002     0.000    -0.003       0.639
 242      -0.004    -0.001     0.004       0.798
 243      -0.006    -0.004     0.007       0.229
 244      -0.005     0.002     0.009       0.815
 245      -0.009    -0.004     0.014       0.310
 246      -0.001    -0.000     0.001       0.780
 247      -0.003     0.001     0.005       0.766
 248      -0.002    -0.001     0.003       0.138
 249      -0.002    -0.000     0.006       0.278
 250       0.006    -0.001    -0.006       1.030
 251      -0.012    -0.011     0.012       0.055
 252       0.009     0.001    -0.010       0.792
 253      -0.058    -0.017    -0.070      -0.587
 254      -0.003    -0.001     0.003       0.738
 255      -0.007     0.005    -0.007      -1.605
 256      -0.004    -0.001     0.005       0.596
 257      -0.005    -0.004     0.008       0.155
 258      -0.009     0.009    -0.015      -1.250
 259      -0.028    -0.019     0.031       0.271
 260      -0.018    -0.008     0.035       0.286
 261      -0.411     0.130    -0.444      -1.218
 262       0.006     0.000    -0.006       0.959
 263       0.012    -0.011    -0.013       1.748
 264      -0.005    -0.001     0.007       0.573
 265      -0.006    -0.004     0.009       0.228
 266      -0.016     0.013    -0.023      -1.312
 267      -0.085    -0.057    -0.109      -0.258
 268      -0.057    -0.010    -0.062      -0.763
 269      -1.153    -0.927    -1.215      -0.185
 270       0.007    -0.000    -0.007       1.010
 271      -0.013    -0.011     0.013       0.147
 272      -0.002    -0.000     0.006       0.298
 273      -0.002    -0.002     0.008       0.059
 274      -0.019    -0.001    -0.025      -0.710
 275      -0.020     0.011    -0.026      -1.185
 276      -0.016     0.013    -0.023      -1.249
 277      -0.087    -0.057    -0.112      -0.264
 278       0.004    -0.002    -0.006       1.057
 279      -0.002    -0.001     0.015       0.020
 280      -0.002    -0.001     0.002       0.441
 281      -0.003    -0.000     0.004       0.613
 282      -0.006    -0.002     0.007       0.635
 283       0.008    -0.006    -0.009       1.597
 284       0.007    -0.001     0.018      -0.420
 285      -0.004     0.001     0.023       0.254
 286      -0.002    -0.001     0.002       0.078
 287      -0.004    -0.001     0.004       0.631
 288      -0.002    -0.000     0.002       0.810
 289      -0.003     0.000     0.003       1.078
 290       0.004     0.001     0.011      -0.245
 291       0.005     0.004     0.014      -0.070
 292      -0.006     0.001     0.008       0.910
 293      -0.010     0.009    -0.015      -1.266
 294       0.001    -0.000     0.004      -0.257
 295      -0.004    -0.001     0.004       0.736
 296      -0.002    -0.000     0.002       0.518
 297      -0.003     0.000     0.004       0.740
 298      -0.003     0.001     0.004       0.980
 299       0.001    -0.000     0.013      -0.064
 300       0.006     0.002    -0.009       0.386
 301      -0.013    -0.010     0.021       0.187
 302      -0.001     0.001     0.003       0.560
 303      -0.005    -0.003     0.007       0.252
 304      -0.003    -0.001     0.004       0.335
 305      -0.003    -0.002     0.007       0.100
 306      -0.004     0.002     0.007       0.860
 307       0.008     0.008     0.039      -0.016
 308      -0.011     0.000     0.024       0.461
 309       0.295     0.250     0.464      -0.097
 310       0.004     0.001    -0.005       0.481
 311      -0.008    -0.007     0.018       0.059
 312      -0.004    -0.001     0.006       0.577
 313      -0.005    -0.003     0.009       0.185
 314       0.050     0.039     0.061      -0.189
 315      -0.030    -0.000    -0.052      -0.565
 316      -0.011    -0.006     0.073       0.071
 317      -0.007     0.001     0.008       1.139
 318       0.063     0.057     0.118      -0.053
 319      -0.004    -0.001     0.005       0.571
 320      -0.004    -0.003     0.009       0.095
 321      -0.006    -0.002     0.013       0.300
 322      -0.025     0.006    -0.041      -0.737
 323       0.053     0.048     0.101      -0.050
 324      -0.162     0.049     0.227       0.926
 325       0.004    -0.003     0.009      -0.831
 326       0.008     0.007     0.040      -0.026
 327      -0.002    -0.001     0.003       0.146
 328       0.003    -0.003    -0.005       1.403
 329       0.005     0.001     0.020      -0.224
 330       0.006    -0.001     0.022      -0.303
 331      -0.008    -0.001     0.013       0.550
 332      -0.024     0.008    -0.043      -0.749
 333      -0.002     0.002    -0.005      -0.831
 334      -0.006    -0.004     0.009       0.143
 335       0.001    -0.001     0.002      -1.222
 336       0.002    -0.002     0.003      -1.224
 337      -0.005     0.002     0.007       1.016
 338       0.003     0.001     0.020      -0.115
 339      -0.004     0.002     0.006       0.820
 340      -0.006    -0.005     0.011       0.156
 341      -0.001     0.000     0.002       0.974
 342       0.003     0.001    -0.003       0.651
 343      -0.001    -0.001     0.003       0.210
 344      -0.002    -0.000     0.008       0.216
 345      -0.006     0.003     0.011       0.903
 346       0.068     0.062     0.122      -0.051
 347       0.020     0.011     0.035      -0.279
 348       0.055     0.049     0.093      -0.065
 349      -0.002    -0.001     0.003       0.268
 350      -0.004    -0.002     0.006       0.305
 351       0.004    -0.002    -0.007       0.838
 352      -0.007    -0.005     0.011       0.139
 353       0.018     0.009     0.043      -0.207
 354       0.546     0.535     0.793      -0.014
 355      -0.013    -0.006     0.021       0.357
 356       0.325     0.287     0.496      -0.077
 357      -0.004    -0.000     0.005       0.864
 358      -0.001    -0.000     0.016       0.079
 359       0.005    -0.001    -0.006       1.206
 360      -0.008    -0.005     0.013       0.201
 361       0.030     0.026     0.079      -0.044
 362      -0.175     0.032     0.198       1.045
 363       0.013     0.005     0.038      -0.195
 364       0.561     0.550     0.810      -0.013
 365      -0.005     0.000     0.006       0.876
 366      -0.003    -0.001     0.016       0.120
 367      -0.004    -0.001     0.006       0.538
 368      -0.009     0.005    -0.011      -1.290
 369       0.157     0.142     0.261      -0.059
 370       0.064     0.004     0.101      -0.592
 371       0.050     0.041     0.061      -0.159
 372      -0.040    -0.013    -0.063      -0.431
 373      -0.003    -0.001     0.004       0.602
 374      -0.003    -0.002     0.009       0.052
 375      -0.001    -0.000     0.004       0.097
 376      -0.002     0.000     0.006       0.314
 377       0.006    -0.001     0.021      -0.356
 378       0.007    -0.001     0.025      -0.319
 379       0.005    -0.001    -0.005       0.987
 380      -0.006    -0.003     0.014       0.215
 381      -0.001    -0.000     0.003       0.347
 382      -0.003    -0.000     0.003       0.895
 383      -0.002     0.001     0.004       0.878
 384      -0.001     0.000     0.002       0.921
 385       0.004     0.001     0.022      -0.132
 386       0.005    -0.001     0.009      -0.694
 387       0.005     0.004     0.023      -0.056
 388       0.005    -0.000    -0.007       0.762
 389       0.003    -0.001     0.004      -1.017
 390      -0.001     0.001     0.001       1.519
 391       0.003    -0.000    -0.004       0.904
 392      -0.002    -0.000     0.002       0.598
 393      -0.004    -0.001     0.016       0.165
 394       0.005    -0.002     0.009      -0.754
 395      -0.009    -0.006     0.016       0.183
 396       0.005    -0.003     0.014      -0.506
 397       0.004    -0.001    -0.004       1.296
 398      -0.001    -0.001     0.003       0.142
 399      -0.004    -0.003     0.008       0.092
 400      -0.003    -0.001     0.004       0.477
 401      -0.019    -0.013     0.035       0.181
 402       0.010    -0.003    -0.010       1.305
 403       0.037    -0.032    -0.042       1.646
 404       0.162     0.151     0.261      -0.042
 405      -0.006    -0.005     0.008       0.072
 406      -0.004    -0.001     0.005       0.555
 407      -0.008    -0.006     0.010       0.175
 408      -0.005    -0.000     0.006       0.840
 409       0.570     0.557     0.813      -0.017
 410       0.067     0.058     0.155      -0.060
 411       0.070     0.068     0.161      -0.013
 412      -0.007    -0.004     0.015       0.164
 413      -0.005     0.002     0.008       0.829
 414       0.002     0.001     0.019      -0.045
 415       0.004    -0.000    -0.005       0.981
 416       1.782     1.754     2.544      -0.011
 417       0.020     0.012     0.044      -0.180
 418       0.611     0.597     0.854      -0.016
 419       0.061     0.051     0.144      -0.070
 420      -0.006    -0.005     0.011       0.128
 421       0.005    -0.001    -0.005       1.067
 422       0.015     0.012     0.027      -0.123
 423      -0.002    -0.001     0.003       0.417
 424       0.104     0.100     0.192      -0.018
 425       0.030     0.017     0.053      -0.239
 426       0.017     0.016     0.060      -0.024
 427      -0.006    -0.001    -0.016      -0.345
 428       0.001    -0.001     0.010      -0.164
 429      -0.002    -0.001     0.003       0.346
 430       0.002    -0.002     0.007      -0.563
 431       0.002     0.001     0.005      -0.122
 432      -0.008    -0.004     0.026       0.159
 433      -0.007     0.000     0.007       1.027
 434      -0.004    -0.002     0.006       0.323
 435      -0.001     0.001     0.005       0.362
 436      -0.003     0.000     0.003       1.153
 437      -0.002    -0.000     0.002       0.794
 438      -0.005    -0.004     0.009       0.136
 439      -0.003    -0.001     0.004       0.719
 440      -0.039     0.010    -0.049      -1.000
 441       0.010    -0.001    -0.013       0.827
 442      -0.009    -0.008     0.011       0.074
 443       0.006     0.003     0.015      -0.254
 444      -0.003    -0.001     0.005       0.417
 445      -0.002    -0.001     0.003       0.128
 446       0.003     0.002     0.034      -0.041
 447       0.006    -0.002     0.012      -0.625
 448      -0.623    -0.554    -0.752      -0.092
 449       0.066     0.061     0.157      -0.027
 450      -0.021    -0.015     0.027       0.217
 451       0.010    -0.001    -0.010       1.055
 452      -0.003    -0.003     0.009       0.084
 453      -0.004    -0.001     0.005       0.530
 454       0.016     0.014     0.059      -0.039
 455      -0.005     0.000    -0.014      -0.407
 456       0.079     0.076     0.187      -0.013
 457      -0.012    -0.005     0.042       0.147
 458      -0.010    -0.002     0.011       0.696
 459      -0.005    -0.004     0.009       0.154
 460      -0.005    -0.001     0.006       0.639
 461       0.124     0.117     0.197      -0.035
 462       0.004     0.002    -0.005       0.260
 463       1.704     1.675     2.454      -0.012
 464       0.027     0.017     0.050      -0.198
 465       0.008     0.007     0.038      -0.032
 466       0.004    -0.003     0.010      -0.667
 467      -0.003    -0.002     0.007       0.100
 468      -0.003    -0.001     0.004       0.428
 469       0.005     0.004     0.020      -0.063
 470       0.003    -0.000     0.007      -0.495
 471       0.094     0.087     0.175      -0.043
 472       0.006     0.003    -0.008       0.421
 473       0.006    -0.006    -0.007       1.603
 474      -0.003     0.000     0.004       0.759
 475      -0.002     0.001     0.005       0.649
 476      -0.002    -0.001     0.002       0.364
 477       0.002    -0.000     0.008      -0.294
 478       0.001    -0.001     0.004      -0.420
 479      -0.003     0.003     0.020       0.281
 480      -0.006    -0.000     0.010       0.610
 481      -0.005    -0.002     0.005       0.484
 482      -0.005    -0.002     0.006       0.448
 483       0.002     0.000    -0.002       0.854
 484       0.002     0.000    -0.003       0.737
 485      -0.002     0.000     0.004       0.605
 486      -0.002    -0.000     0.005       0.278
 487      -0.009    -0.002     0.012       0.628
 488       0.005    -0.002     0.022      -0.309
 489       0.006     0.002     0.014      -0.294
 490      -0.007    -0.004     0.010       0.301
 491      -0.002    -0.000     0.003       0.644
 492      -0.002    -0.000     0.004       0.539
 493      -0.002    -0.001     0.011       0.066
 494      -0.005    -0.003     0.008       0.194
 495      -0.046     0.001    -0.055      -0.849
 496       0.047     0.023     0.094      -0.257
 497      -0.013    -0.007     0.014       0.429
 498       0.007     0.003     0.046      -0.074
 499      -0.003    -0.002     0.005       0.195
 500      -0.003    -0.002     0.006       0.178
 501       0.018     0.014     0.035      -0.104
 502      -0.008    -0.003     0.012       0.441
 503       0.398     0.330     0.531      -0.127
 504       1.800     1.775     2.558      -0.010
 505      -0.022     0.022    -0.029      -1.531
 506       0.048     0.025     0.096      -0.236
 507      -0.005    -0.002     0.008       0.393
 508      -0.003    -0.000     0.011       0.287
 509      -0.006    -0.004     0.014       0.132
 510      -0.006     0.006    -0.011      -1.097
 511       2.180     2.159     3.094      -0.007
 512       0.051    -0.004     0.102      -0.542
 513       0.077     0.071     0.124      -0.052
 514       0.026     0.021     0.064      -0.083
 515      -0.004    -0.002     0.007       0.291
 516      -0.004    -0.002     0.007       0.299
 517       0.003     0.002     0.018      -0.054
 518      -0.003    -0.001     0.006       0.315
 519       0.086     0.079     0.168      -0.038
 520       0.013     0.005    -0.016       0.473
 521       0.020     0.019     0.036      -0.050
 522      -0.007    -0.003     0.010       0.395
 523      -0.003    -0.002     0.004       0.217
 524      -0.002    -0.001     0.004       0.242
 525      -0.002     0.001     0.003       1.198
 526       0.002     0.000    -0.002       0.836
 527      -0.002     0.002     0.010       0.400
 528       0.006     0.004     0.013      -0.147
 529      -0.008    -0.002     0.009       0.616
 530      -0.005     0.001     0.014       0.405
 531       0.002     0.000    -0.002       0.908
 532      -0.003    -0.000     0.003       0.862
 533      -0.003    -0.001     0.004       0.356
 534      -0.003    -0.001     0.004       0.291
 535      -0.006    -0.003     0.011       0.339
 536       0.007     0.002     0.023      -0.199
 537       0.014    -0.007    -0.016       1.290
 538      -0.014    -0.006     0.033       0.228
 539      -0.003    -0.002     0.005       0.122
 540      -0.002    -0.002     0.010       0.012
 541      -0.005    -0.003     0.006       0.287
 542      -0.004    -0.002     0.007       0.316
 543       0.071     0.064     0.118      -0.058
 544       0.028     0.022     0.065      -0.087
 545      -0.057     0.020    -0.070      -1.095
 546       2.274     2.257     3.151      -0.006
 547      -0.006    -0.002     0.010       0.376
 548       0.006     0.001     0.023      -0.222
 549      -0.006    -0.003     0.008       0.331
 550      -0.005    -0.002     0.007       0.422
 551       0.047     0.029     0.093      -0.185
 552      -0.023     0.006    -0.041      -0.712
 553       0.427     0.370     0.568      -0.100
 554       1.763     1.735     2.498      -0.011
 555      -0.007    -0.003     0.012       0.352
 556       0.005    -0.001     0.023      -0.237
 557      -0.004    -0.003     0.006       0.143
 558      -0.004    -0.002     0.005       0.265
 559       0.085     0.081     0.168      -0.024
 560       0.010     0.004    -0.015       0.438
 561       0.047     0.032     0.095      -0.153
 562      -0.023     0.005    -0.043      -0.670
 563       0.001    -0.000     0.013      -0.122
 564      -0.005    -0.003     0.008       0.200
 565      -0.002    -0.000     0.004       0.484
 566      -0.002    -0.001     0.003       0.539
 567       0.019     0.017     0.048      -0.055
 568       0.016     0.009     0.025      -0.303
 569      -0.007    -0.004     0.014       0.226
 570       0.007    -0.005    -0.013       0.978
 571      -0.003    -0.001     0.003       0.482
 572      -0.003    -0.001     0.004       0.466
 573       0.242     0.037    -0.399       0.513
 574      14.739    14.696    25.641      -0.002
 575      14.776    14.736    25.896      -0.002
 576      -0.603    -0.524    -0.726      -0.110
 ---------------------------------------------------------------------



--------------------------------------------------------------------------------------------------------


     LOOP+:  cpu time 1358.2700: real time 1362.4644
    4ORBIT:  cpu time    0.0000: real time    0.0000

 total amount of memory used by VASP MPI-rank0   238704. kBytes
=======================================================================

   base      :      30000. kBytes
   nonlr-proj:       9227. kBytes
   fftplans  :      15014. kBytes
   grid      :      46644. kBytes
   one-center:        294. kBytes
   wavefun   :     137525. kBytes
 
  
  
 General timing and accounting informations for this job:
 ========================================================
  
                  Total CPU time used (sec):     1394.332
                            User time (sec):     1393.077
                          System time (sec):        1.255
                         Elapsed time (sec):     1399.774
  
                   Maximum memory used (kb):      430424.
                   Average memory used (kb):          N/A
  
                          Minor page faults:       274449
                          Major page faults:            0
                 Voluntary context switches:        14283
