 vasp.6.2.0 18Jan21 (build Apr 30 2021 19:00:08) gamma-only                     
  
 executed on             LinuxIFC date 2022.12.30  16:23:19
 running on   24 total cores
 distrk:  each k-point on   24 cores,    1 groups
 distr:  one band on NCORE=   6 cores,    4 groups


--------------------------------------------------------------------------------------------------------


 INCAR:
   SYSTEM = Diamond
   PREC = Normal
   ISTART = 0
   ICHARG = 11
   ISPIN = 2
   MAGMOM = 572*0.0 1*2.0 2*2.0 1*3
   NPAR = 4
   NELECT = 2303
   LHYPERFINE = T
   LEFG = T
   ENCUT = 700
   NELM = 1000
   NELMIN = 4
   EDIFF = 1E-06
   LREAL = Auto
   ALGO = Normal
   EDIFFG = -1E-02
   NSW = 0
   IBRION = 2
   ISIF = 2
   ISYM = 2
   POTIM = 0.5
   ISMEAR = 0
   SIGMA = 0.05
   NEDOS = 1000
   LWAVE = F
   LCHARG = F
   LVHAR = F
   LELF = F

 POTCAR:    PAW_PBE C 08Apr2002                   
 POTCAR:    PAW_PBE H 15Jun2001                   
 POTCAR:    PAW_PBE C 08Apr2002                   
 POTCAR:    PAW_PBE N 08Apr2002                   
 POTCAR:    PAW_PBE C 08Apr2002                   
   VRHFIN =C: s2p2                                                                                  
   LEXCH  = PE                                                                                      
   EATOM  =   147.1560 eV,   10.8157 Ry                                                             
                                                                                                    
   TITEL  = PAW_PBE C 08Apr2002                                                                     
   LULTRA =        F    use ultrasoft PP ?                                                          
   IUNSCR =        1    unscreen: 0-lin 1-nonlin 2-no                                               
   RPACOR =    1.200    partial core radius                                                         
   POMASS =   12.011; ZVAL   =    4.000    mass and valenz                                          
   RCORE  =    1.500    outmost cutoff radius                                                       
   RWIGS  =    1.630; RWIGS  =    0.863    wigner-seitz radius (au A)                               
   ENMAX  =  400.000; ENMIN  =  300.000 eV                                                          
   ICORE  =        2    local potential                                                             
   LCOR   =        T    correct aug charges                                                         
   LPAW   =        T    paw PP                                                                      
   EAUG   =  644.873                                                                                
   DEXC   =    0.000                                                                                
   RMAX   =    1.529    core radius for proj-oper                                                   
   RAUG   =    1.300    factor for augmentation sphere                                              
   RDEP   =    1.501    radius for radial grids                                                     
   RDEPT  =    1.300    core radius for aug-charge                                                  
                                                                                                    
   Atomic configuration                                                                             
    4 entries                                                                                       
     n  l   j            E        occ.                                                              
     1  0  0.50      -273.3789   2.0000                                                             
     2  0  0.50       -13.7508   2.0000                                                             
     2  1  0.50        -5.2854   2.0000                                                             
     3  2  1.50        -5.4423   0.0000                                                             
   Description                                                                                      
     l       E           TYP  RCUT    TYP  RCUT                                                     
     0    -13.7508458     23  1.200                                                                 
     0     -8.2022199     23  1.200                                                                 
     1     -5.2854383     23  1.500                                                                 
     1     34.0145650     23  1.500                                                                 
     2     -5.4423304      7  1.500                                                                 
  local pseudopotential read in
  partial core-charges read in
  partial kinetic energy density read in
  atomic valenz-charges read in
  non local Contribution for L=           0  read in
    real space projection operators read in
  non local Contribution for L=           0  read in
    real space projection operators read in
  non local Contribution for L=           1  read in
    real space projection operators read in
  non local Contribution for L=           1  read in
    real space projection operators read in
    PAW grid and wavefunctions read in
 
   number of l-projection  operators is LMAX  =           4
   number of lm-projection operators is LMMAX =           8
 
 POTCAR:    PAW_PBE H 15Jun2001                   
   VRHFIN =H: ultrasoft test                                                                        
   LEXCH  = PE                                                                                      
   EATOM  =    12.4884 eV,    0.9179 Ry                                                             
                                                                                                    
   TITEL  = PAW_PBE H 15Jun2001                                                                     
   LULTRA =        F    use ultrasoft PP ?                                                          
   IUNSCR =        0    unscreen: 0-lin 1-nonlin 2-no                                               
   RPACOR =    0.000    partial core radius                                                         
   POMASS =    1.000; ZVAL   =    1.000    mass and valenz                                          
   RCORE  =    1.100    outmost cutoff radius                                                       
   RWIGS  =    0.700; RWIGS  =    0.370    wigner-seitz radius (au A)                               
   ENMAX  =  250.000; ENMIN  =  200.000 eV                                                          
   RCLOC  =    0.701    cutoff for local pot                                                        
   LCOR   =        T    correct aug charges                                                         
   LPAW   =        T    paw PP                                                                      
   EAUG   =  400.000                                                                                
   RMAX   =    1.123    core radius for proj-oper                                                   
   RAUG   =    1.200    factor for augmentation sphere                                              
   RDEP   =    1.112    radius for radial grids                                                     
   RDEPT  =    0.926    core radius for aug-charge                                                  
                                                                                                    
   Atomic configuration                                                                             
    2 entries                                                                                       
     n  l   j            E        occ.                                                              
     1  0  0.50        -6.4927   1.0000                                                             
     2  1  0.50        -3.4015   0.0000                                                             
   Description                                                                                      
     l       E           TYP  RCUT    TYP  RCUT                                                     
     0     -6.4927494     23  1.100                                                                 
     0      6.8029130     23  1.100                                                                 
     1     -4.0817478     23  1.100                                                                 
  local pseudopotential read in
  atomic valenz-charges read in
  non local Contribution for L=           0  read in
    real space projection operators read in
  non local Contribution for L=           0  read in
    real space projection operators read in
  non local Contribution for L=           1  read in
    real space projection operators read in
    PAW grid and wavefunctions read in
 
   number of l-projection  operators is LMAX  =           3
   number of lm-projection operators is LMMAX =           5
 
 POTCAR:    PAW_PBE C 08Apr2002                   
   VRHFIN =C: s2p2                                                                                  
   LEXCH  = PE                                                                                      
   EATOM  =   147.1560 eV,   10.8157 Ry                                                             
                                                                                                    
   TITEL  = PAW_PBE C 08Apr2002                                                                     
   LULTRA =        F    use ultrasoft PP ?                                                          
   IUNSCR =        1    unscreen: 0-lin 1-nonlin 2-no                                               
   RPACOR =    1.200    partial core radius                                                         
   POMASS =   12.011; ZVAL   =    4.000    mass and valenz                                          
   RCORE  =    1.500    outmost cutoff radius                                                       
   RWIGS  =    1.630; RWIGS  =    0.863    wigner-seitz radius (au A)                               
   ENMAX  =  400.000; ENMIN  =  300.000 eV                                                          
   ICORE  =        2    local potential                                                             
   LCOR   =        T    correct aug charges                                                         
   LPAW   =        T    paw PP                                                                      
   EAUG   =  644.873                                                                                
   DEXC   =    0.000                                                                                
   RMAX   =    1.529    core radius for proj-oper                                                   
   RAUG   =    1.300    factor for augmentation sphere                                              
   RDEP   =    1.501    radius for radial grids                                                     
   RDEPT  =    1.300    core radius for aug-charge                                                  
                                                                                                    
   Atomic configuration                                                                             
    4 entries                                                                                       
     n  l   j            E        occ.                                                              
     1  0  0.50      -273.3789   2.0000                                                             
     2  0  0.50       -13.7508   2.0000                                                             
     2  1  0.50        -5.2854   2.0000                                                             
     3  2  1.50        -5.4423   0.0000                                                             
   Description                                                                                      
     l       E           TYP  RCUT    TYP  RCUT                                                     
     0    -13.7508458     23  1.200                                                                 
     0     -8.2022199     23  1.200                                                                 
     1     -5.2854383     23  1.500                                                                 
     1     34.0145650     23  1.500                                                                 
     2     -5.4423304      7  1.500                                                                 
  local pseudopotential read in
  partial core-charges read in
  partial kinetic energy density read in
  atomic valenz-charges read in
  non local Contribution for L=           0  read in
    real space projection operators read in
  non local Contribution for L=           0  read in
    real space projection operators read in
  non local Contribution for L=           1  read in
    real space projection operators read in
  non local Contribution for L=           1  read in
    real space projection operators read in
    PAW grid and wavefunctions read in
 
   number of l-projection  operators is LMAX  =           4
   number of lm-projection operators is LMMAX =           8
 
 POTCAR:    PAW_PBE N 08Apr2002                   
   VRHFIN =N: s2p3                                                                                  
   LEXCH  = PE                                                                                      
   EATOM  =   264.5486 eV,   19.4438 Ry                                                             
                                                                                                    
   TITEL  = PAW_PBE N 08Apr2002                                                                     
   LULTRA =        F    use ultrasoft PP ?                                                          
   IUNSCR =        1    unscreen: 0-lin 1-nonlin 2-no                                               
   RPACOR =    1.200    partial core radius                                                         
   POMASS =   14.001; ZVAL   =    5.000    mass and valenz                                          
   RCORE  =    1.500    outmost cutoff radius                                                       
   RWIGS  =    1.400; RWIGS  =    0.741    wigner-seitz radius (au A)                               
   ENMAX  =  400.000; ENMIN  =  300.000 eV                                                          
   ICORE  =        2    local potential                                                             
   LCOR   =        T    correct aug charges                                                         
   LPAW   =        T    paw PP                                                                      
   EAUG   =  627.112                                                                                
   DEXC   =    0.000                                                                                
   RMAX   =    1.529    core radius for proj-oper                                                   
   RAUG   =    1.300    factor for augmentation sphere                                              
   RDEP   =    1.514    radius for radial grids                                                     
   RDEPT  =    1.338    core radius for aug-charge                                                  
                                                                                                    
   Atomic configuration                                                                             
    4 entries                                                                                       
     n  l   j            E        occ.                                                              
     1  0  0.50      -384.7179   2.0000                                                             
     2  0  0.50       -18.5828   2.0000                                                             
     2  1  0.50        -7.0898   3.0000                                                             
     3  2  1.50        -6.8029   0.0000                                                             
   Description                                                                                      
     l       E           TYP  RCUT    TYP  RCUT                                                     
     0    -18.5828119     23  1.200                                                                 
     0    -13.5018863     23  1.200                                                                 
     1     -7.0897853     23  1.500                                                                 
     1      9.5240782     23  1.500                                                                 
     2     -6.8029130      7  1.500                                                                 
  local pseudopotential read in
  partial core-charges read in
  partial kinetic energy density read in
  atomic valenz-charges read in
  non local Contribution for L=           0  read in
    real space projection operators read in
  non local Contribution for L=           0  read in
    real space projection operators read in
  non local Contribution for L=           1  read in
    real space projection operators read in
  non local Contribution for L=           1  read in
    real space projection operators read in
    PAW grid and wavefunctions read in
 
   number of l-projection  operators is LMAX  =           4
   number of lm-projection operators is LMMAX =           8
 
 Optimization of the real space projectors (new method)

 maximal supplied QI-value         = 25.13
 optimisation between [QCUT,QGAM] = [ 13.32, 26.89] = [ 49.69,202.52] Ry 
 Optimized for a Real-space Cutoff    1.01 Angstroem

   l    n(q)    QCUT    max X(q) W(low)/X(q) W(high)/X(q)  e(spline) 
   0      8    13.321   115.676    0.29E-03    0.42E-03    0.11E-06
   0      8    13.321    87.132    0.29E-03    0.42E-03    0.11E-06
   1      8    13.321     4.429    0.39E-03    0.33E-03    0.98E-07
   1      8    13.321     2.733    0.30E-03    0.26E-03    0.97E-07
 Optimization of the real space projectors (new method)

 maximal supplied QI-value         = 34.20
 optimisation between [QCUT,QGAM] = [ 13.34, 27.02] = [ 49.83,204.46] Ry 
 Optimized for a Real-space Cutoff    0.93 Angstroem

   l    n(q)    QCUT    max X(q) W(low)/X(q) W(high)/X(q)  e(spline) 
   0      7    13.340    19.460    0.47E-03    0.72E-04    0.17E-06
   0      7    13.340    12.209    0.45E-03    0.63E-04    0.16E-06
   1      7    13.340     4.655    0.21E-03    0.61E-03    0.12E-06
 Optimization of the real space projectors (new method)

 maximal supplied QI-value         = 25.13
 optimisation between [QCUT,QGAM] = [ 13.32, 26.89] = [ 49.69,202.52] Ry 
 Optimized for a Real-space Cutoff    1.01 Angstroem

   l    n(q)    QCUT    max X(q) W(low)/X(q) W(high)/X(q)  e(spline) 
   0      8    13.321   115.676    0.29E-03    0.42E-03    0.11E-06
   0      8    13.321    87.132    0.29E-03    0.42E-03    0.11E-06
   1      8    13.321     4.429    0.39E-03    0.33E-03    0.98E-07
   1      8    13.321     2.733    0.30E-03    0.26E-03    0.97E-07
 Optimization of the real space projectors (new method)

 maximal supplied QI-value         = 25.13
 optimisation between [QCUT,QGAM] = [ 13.32, 26.89] = [ 49.69,202.52] Ry 
 Optimized for a Real-space Cutoff    1.01 Angstroem

   l    n(q)    QCUT    max X(q) W(low)/X(q) W(high)/X(q)  e(spline) 
   0      8    13.321    79.467    0.28E-03    0.38E-03    0.11E-06
   0      8    13.321    66.151    0.27E-03    0.38E-03    0.11E-06
   1      8    13.321    23.070    0.40E-03    0.78E-03    0.29E-06
   1      8    13.321    16.668    0.40E-03    0.79E-03    0.30E-06
  PAW_PBE C 08Apr2002                   :
 energy of atom  1       EATOM= -147.1560
 kinetic energy error for atom=    0.0032 (will be added to EATOM!!)
  PAW_PBE H 15Jun2001                   :
 energy of atom  2       EATOM=  -12.4884
 kinetic energy error for atom=    0.0002 (will be added to EATOM!!)
  PAW_PBE C 08Apr2002                   :
 energy of atom  3       EATOM= -147.1560
 kinetic energy error for atom=    0.0032 (will be added to EATOM!!)
  PAW_PBE N 08Apr2002                   :
 energy of atom  4       EATOM= -264.5486
 kinetic energy error for atom=    0.0061 (will be added to EATOM!!)
 
 
 POSCAR: Autosave
  positions in direct lattice
  velocities in cartesian coordinates
 exchange correlation table for  LEXCH =        8
   RHO(1)=    0.500       N(1)  =     2000
   RHO(2)=  100.500       N(2)  =     4000
 


--------------------------------------------------------------------------------------------------------


 ion  position               nearest neighbor table
   1  0.000  1.000  1.000- 288 1.55 475 1.55 437 1.55 384 1.55
   2  0.000  1.000  0.500- 289 1.55 474 1.55 436 1.55 383 1.55
   3  0.000  0.250  1.000- 290 1.55 469 1.55 431 1.55 386 1.55
   4  0.000  0.250  0.500- 291 1.55 468 1.55 430 1.55 385 1.55
   5  0.000  0.500  0.000- 292 1.55 388 1.55 471 1.55 433 1.55
   6  0.000  0.500  0.500- 470 1.55 432 1.55 293 1.55 387 1.55
   7  0.000  0.750  1.000- 390 1.55 294 1.55 473 1.55 435 1.55
   8  0.000  0.750  0.500- 295 1.55 389 1.55 472 1.55 434 1.55
   9  0.167  1.000  0.000- 296 1.55 437 1.55 445 1.55 392 1.55
  10  0.167  1.000  0.500- 391 1.54 444 1.55 436 1.55 297 1.55
  11  0.167  0.250  1.000- 431 1.55 298 1.55 439 1.55 394 1.55
  12  0.167  0.250  0.500- 430 1.55 299 1.55 438 1.55 393 1.55
  13  0.167  0.500  0.000- 300 1.55 441 1.55 396 1.55 433 1.55
  14  0.167  0.500  0.500- 440 1.54 432 1.55 301 1.55 395 1.55
  15  0.167  0.750  0.000- 398 1.55 435 1.55 302 1.55 443 1.55
  16  0.167  0.750  0.500- 303 1.55 434 1.55 442 1.55 397 1.55
  17  0.333  0.000  1.000- 304 1.55 400 1.55 452 1.55 445 1.55
  18  0.333  0.000  0.500- 399 1.54 451 1.55 305 1.55 444 1.55
  19  0.333  0.250  0.000- 306 1.55 447 1.55 402 1.55 439 1.55
  20  0.333  0.249  0.500- 401 1.54 438 1.54 307 1.55 446 1.55
  21  0.333  0.500  0.001- 448 1.55 308 1.55 404 1.55 441 1.55
  22  0.336  0.499  0.499- 574 1.51 403 1.55 309 1.55 440 1.57
  23  0.333  0.750  0.000- 450 1.55 310 1.55 406 1.55 443 1.55
  24  0.333  0.751  0.500- 449 1.54 405 1.54 311 1.55 442 1.55
  25  0.500  0.000  1.000- 408 1.55 312 1.55 459 1.55 452 1.55
  26  0.500  0.000  0.500- 407 1.54 313 1.55 458 1.55 451 1.55
  27  0.500  0.250  0.000- 410 1.54 314 1.54 454 1.55 447 1.55
  28  0.500  0.250  0.500- 409 1.54 315 1.55 453 1.55 446 1.55
  29  0.500  0.500  0.001- 316 1.55 411 1.55 455 1.55 448 1.55
  30  0.500  0.750  1.000- 317 1.54 413 1.55 457 1.55 450 1.55
  31  0.500  0.751  0.500- 412 1.54 318 1.55 456 1.55 449 1.55
  32  0.667  0.000  1.000- 319 1.55 415 1.55 459 1.55 467 1.55
  33  0.667  0.000  0.500- 414 1.54 458 1.55 320 1.55 466 1.55
  34  0.667  0.250  0.000- 321 1.55 454 1.55 417 1.55 461 1.55
  35  0.667  0.249  0.500- 416 1.54 460 1.54 322 1.55 453 1.55
  36  0.667  0.500  0.001- 455 1.55 323 1.55 419 1.55 463 1.55
  37  0.664  0.499  0.499- 575 1.51 418 1.55 324 1.55 462 1.57
  38  0.667  0.750  0.000- 457 1.55 325 1.55 421 1.55 465 1.55
  39  0.667  0.751  0.500- 456 1.54 420 1.54 326 1.55 464 1.55
  40  0.833  1.000  0.000- 327 1.55 475 1.55 467 1.55 423 1.55
  41  0.833  1.000  0.500- 422 1.54 466 1.55 474 1.55 328 1.55
  42  0.833  0.250  1.000- 469 1.55 329 1.55 461 1.55 425 1.55
  43  0.833  0.250  0.500- 468 1.55 330 1.55 460 1.55 424 1.55
  44  0.833  0.500  0.000- 331 1.55 463 1.55 427 1.55 471 1.55
  45  0.833  0.500  0.500- 462 1.54 470 1.55 332 1.55 426 1.55
  46  0.833  0.750  0.000- 429 1.55 473 1.55 333 1.55 465 1.55
  47  0.833  0.750  0.500- 334 1.55 472 1.55 464 1.55 428 1.55
  48  0.083  0.125  1.000- 335 1.55 384 1.55 392 1.55 431 1.55
  49  0.083  0.125  0.500- 383 1.55 336 1.55 391 1.55 430 1.55
  50  0.083  0.375  1.000- 386 1.55 337 1.55 433 1.55 394 1.55
  51  0.083  0.375  0.500- 338 1.55 385 1.55 393 1.55 432 1.55
  52  0.083  0.625  0.000- 435 1.55 396 1.55 388 1.55 339 1.55
  53  0.084  0.625  0.500- 340 1.55 434 1.55 387 1.55 395 1.55
  54  0.083  0.875  1.000- 341 1.55 390 1.55 437 1.55 398 1.55
  55  0.083  0.875  0.500- 342 1.55 389 1.55 436 1.55 397 1.55
  56  0.250  0.125  1.000- 343 1.55 439 1.55 392 1.55 400 1.55
  57  0.250  0.125  0.500- 438 1.54 391 1.55 344 1.55 399 1.55
  58  0.250  0.375  1.000- 345 1.54 394 1.55 441 1.55 402 1.55
  59  0.250  0.375  0.500- 346 1.55 393 1.55 401 1.55 440 1.55
  60  0.250  0.625  0.000- 404 1.54 347 1.55 443 1.55 396 1.55
  61  0.251  0.625  0.500- 348 1.54 442 1.55 395 1.55 403 1.56
  62  0.250  0.875  0.000- 349 1.55 445 1.55 406 1.55 398 1.55
  63  0.250  0.875  0.500- 405 1.54 444 1.54 350 1.55 397 1.55
  64  0.417  0.125  0.000- 447 1.55 351 1.55 408 1.55 400 1.55
  65  0.417  0.125  0.500- 446 1.54 407 1.55 352 1.55 399 1.55
  66  0.417  0.375  0.000- 353 1.54 448 1.55 402 1.55 410 1.55
  67  0.417  0.375  0.499- 574 1.49 409 1.55 401 1.55 354 1.55
  68  0.417  0.625  0.001- 355 1.55 411 1.55 404 1.55 450 1.55
  69  0.419  0.626  0.498- 576 1.48 449 1.54 403 1.56 356 1.56
  70  0.417  0.875  1.000- 357 1.55 452 1.55 413 1.55 406 1.55
  71  0.417  0.875  0.500- 451 1.54 412 1.55 358 1.55 405 1.55
  72  0.583  0.125  0.000- 454 1.55 359 1.55 408 1.55 415 1.55
  73  0.583  0.125  0.500- 453 1.54 407 1.55 360 1.55 414 1.55
  74  0.583  0.375  0.000- 361 1.54 455 1.55 417 1.55 410 1.55
  75  0.583  0.375  0.499- 575 1.49 409 1.55 416 1.55 362 1.55
  76  0.583  0.625  0.001- 363 1.55 411 1.55 419 1.55 457 1.55
  77  0.581  0.626  0.498- 576 1.48 456 1.54 418 1.56 364 1.56
  78  0.583  0.875  1.000- 365 1.55 459 1.55 413 1.55 421 1.55
  79  0.583  0.875  0.500- 458 1.54 412 1.55 366 1.55 420 1.55
  80  0.750  0.125  1.000- 367 1.55 461 1.55 423 1.55 415 1.55
  81  0.750  0.125  0.500- 460 1.54 422 1.54 368 1.55 414 1.55
  82  0.750  0.375  1.000- 369 1.54 425 1.55 463 1.55 417 1.55
  83  0.750  0.375  0.500- 370 1.55 424 1.55 416 1.55 462 1.55
  84  0.750  0.625  0.000- 419 1.54 371 1.55 465 1.55 427 1.55
  85  0.749  0.625  0.500- 372 1.54 464 1.55 426 1.55 418 1.56
  86  0.750  0.875  0.000- 373 1.55 467 1.55 421 1.55 429 1.55
  87  0.750  0.875  0.500- 420 1.54 466 1.54 374 1.55 428 1.55
  88  0.917  0.125  1.000- 375 1.55 384 1.55 423 1.55 469 1.55
  89  0.917  0.125  0.500- 383 1.55 376 1.55 422 1.55 468 1.55
  90  0.917  0.375  1.000- 386 1.55 377 1.55 471 1.55 425 1.55
  91  0.917  0.375  0.500- 378 1.55 385 1.55 424 1.55 470 1.55
  92  0.917  0.625  0.000- 473 1.55 427 1.55 388 1.55 379 1.55
  93  0.916  0.625  0.500- 380 1.55 472 1.55 387 1.55 426 1.55
  94  0.917  0.875  1.000- 381 1.55 390 1.55 475 1.55 429 1.55
  95  0.917  0.875  0.500- 382 1.55 389 1.55 474 1.55 428 1.55
  96  0.000  0.083  0.333- 564 1.55 524 1.55 383 1.55 476 1.55
  97  0.000  0.083  0.833- 384 1.55 565 1.55 525 1.55 477 1.55
  98  0.000  0.333  0.333- 385 1.55 478 1.55 566 1.55 526 1.55
  99  0.000  0.333  0.833- 386 1.55 479 1.55 567 1.55 527 1.55
 100  0.000  0.583  0.333- 387 1.55 480 1.55 568 1.55 528 1.55
 101  0.000  0.583  0.833- 481 1.55 388 1.55 569 1.55 529 1.55
 102  0.000  0.833  0.333- 389 1.55 482 1.55 570 1.55 530 1.55
 103  0.000  0.833  0.833- 390 1.55 483 1.55 571 1.55 531 1.55
 104  0.167  0.083  0.333- 524 1.55 484 1.55 532 1.55 391 1.55
 105  0.167  0.083  0.833- 392 1.55 533 1.55 525 1.55 485 1.55
 106  0.167  0.333  0.333- 393 1.55 526 1.55 534 1.55 486 1.55
 107  0.167  0.333  0.833- 394 1.55 527 1.55 535 1.55 487 1.55
 108  0.167  0.583  0.333- 395 1.55 536 1.55 488 1.55 528 1.55
 109  0.167  0.583  0.833- 489 1.55 537 1.55 529 1.55 396 1.55
 110  0.167  0.833  0.333- 538 1.55 397 1.55 490 1.55 530 1.55
 111  0.167  0.833  0.833- 398 1.55 539 1.55 491 1.55 531 1.55
 112  0.333  0.083  0.333- 492 1.55 532 1.55 540 1.55 399 1.55
 113  0.333  0.083  0.833- 493 1.55 400 1.55 541 1.55 533 1.55
 114  0.333  0.333  0.333- 534 1.55 542 1.55 401 1.55 494 1.55
 115  0.333  0.333  0.833- 402 1.55 495 1.55 543 1.55 535 1.55
 116  0.334  0.583  0.334- 403 1.54 544 1.54 536 1.55 496 1.55
 117  0.333  0.583  0.834- 545 1.54 404 1.54 497 1.55 537 1.55
 118  0.333  0.834  0.333- 498 1.54 546 1.55 538 1.55 405 1.55
 119  0.333  0.833  0.833- 406 1.55 547 1.55 499 1.55 539 1.55
 120  0.500  0.083  0.333- 500 1.55 407 1.55 548 1.55 540 1.55
 121  0.500  0.083  0.833- 408 1.55 501 1.55 549 1.55 541 1.55
 122  0.500  0.333  0.333- 409 1.54 502 1.55 550 1.55 542 1.55
 123  0.500  0.333  0.834- 503 1.54 410 1.54 551 1.55 543 1.55
 124  0.500  0.585  0.336- 576 1.48 504 1.55 552 1.56 544 1.56
 125  0.500  0.584  0.834- 411 1.54 505 1.55 553 1.55 545 1.55
 126  0.500  0.834  0.333- 506 1.54 412 1.55 554 1.55 546 1.55
 127  0.500  0.833  0.833- 413 1.55 507 1.55 555 1.55 547 1.55
 128  0.667  0.083  0.333- 508 1.55 556 1.55 548 1.55 414 1.55
 129  0.667  0.083  0.833- 509 1.55 415 1.55 549 1.55 557 1.55
 130  0.667  0.333  0.333- 558 1.55 550 1.55 416 1.55 510 1.55
 131  0.667  0.333  0.833- 417 1.55 511 1.55 551 1.55 559 1.55
 132  0.666  0.583  0.334- 418 1.54 552 1.54 560 1.55 512 1.55
 133  0.667  0.583  0.834- 553 1.54 419 1.54 513 1.55 561 1.55
 134  0.667  0.834  0.333- 514 1.54 554 1.55 562 1.55 420 1.55
 135  0.667  0.833  0.833- 421 1.55 555 1.55 515 1.55 563 1.55
 136  0.833  0.083  0.333- 564 1.55 516 1.55 556 1.55 422 1.55
 137  0.833  0.083  0.833- 423 1.55 557 1.55 565 1.55 517 1.55
 138  0.833  0.333  0.333- 424 1.55 566 1.55 558 1.55 518 1.55
 139  0.833  0.333  0.833- 425 1.55 567 1.55 559 1.55 519 1.55
 140  0.833  0.583  0.333- 426 1.55 560 1.55 520 1.55 568 1.55
 141  0.833  0.583  0.833- 521 1.55 561 1.55 569 1.55 427 1.55
 142  0.833  0.833  0.333- 562 1.55 428 1.55 522 1.55 570 1.55
 143  0.833  0.833  0.833- 429 1.55 563 1.55 523 1.55 571 1.55
 144  0.083  0.208  0.333- 484 1.55 430 1.55 476 1.55 526 1.55
 145  0.083  0.208  0.833- 431 1.55 485 1.55 477 1.55 527 1.55
 146  0.083  0.458  0.333- 432 1.55 528 1.55 486 1.55 478 1.55
 147  0.083  0.458  0.833- 433 1.55 529 1.55 487 1.55 479 1.55
 148  0.083  0.708  0.333- 434 1.55 488 1.55 530 1.55 480 1.55
 149  0.083  0.708  0.833- 531 1.55 435 1.55 481 1.55 489 1.55
 150  0.083  0.958  0.333- 490 1.55 436 1.55 482 1.55 524 1.55
 151  0.083  0.958  0.833- 437 1.55 491 1.55 525 1.55 483 1.55
 152  0.250  0.208  0.333- 484 1.55 492 1.55 534 1.55 438 1.55
 153  0.250  0.208  0.833- 439 1.55 493 1.55 485 1.55 535 1.55
 154  0.250  0.458  0.333- 536 1.55 486 1.55 440 1.55 494 1.55
 155  0.250  0.458  0.833- 495 1.55 537 1.55 441 1.55 487 1.55
 156  0.250  0.708  0.333- 442 1.55 496 1.55 488 1.55 538 1.55
 157  0.250  0.708  0.833- 539 1.55 489 1.55 497 1.55 443 1.55
 158  0.250  0.958  0.333- 532 1.55 498 1.55 490 1.55 444 1.55
 159  0.250  0.958  0.833- 445 1.55 499 1.55 533 1.55 491 1.55
 160  0.417  0.208  0.333- 542 1.55 446 1.55 492 1.55 500 1.55
 161  0.417  0.208  0.833- 543 1.55 447 1.55 493 1.55 501 1.55
 162  0.417  0.458  0.334- 574 1.49 502 1.55 544 1.55 494 1.55
 163  0.417  0.458  0.834- 448 1.54 495 1.55 503 1.55 545 1.55
 164  0.417  0.709  0.333- 546 1.54 496 1.55 449 1.55 504 1.55
 165  0.417  0.708  0.833- 505 1.55 497 1.55 450 1.55 547 1.55
 166  0.417  0.958  0.333- 540 1.55 451 1.55 498 1.55 506 1.55
 167  0.417  0.958  0.833- 452 1.55 541 1.55 499 1.55 507 1.55
 168  0.583  0.208  0.333- 550 1.55 453 1.55 508 1.55 500 1.55
 169  0.583  0.208  0.833- 551 1.55 454 1.55 509 1.55 501 1.55
 170  0.583  0.458  0.334- 575 1.49 502 1.55 552 1.55 510 1.55
 171  0.583  0.458  0.834- 455 1.54 511 1.55 503 1.55 553 1.55
 172  0.583  0.709  0.333- 554 1.54 512 1.55 456 1.55 504 1.55
 173  0.583  0.708  0.833- 505 1.55 513 1.55 457 1.55 555 1.55
 174  0.583  0.958  0.333- 548 1.55 458 1.55 514 1.55 506 1.55
 175  0.583  0.958  0.833- 459 1.55 549 1.55 515 1.55 507 1.55
 176  0.750  0.208  0.333- 516 1.55 508 1.55 558 1.55 460 1.55
 177  0.750  0.208  0.833- 461 1.55 509 1.55 517 1.55 559 1.55
 178  0.750  0.458  0.333- 560 1.55 518 1.55 462 1.55 510 1.55
 179  0.750  0.458  0.833- 511 1.55 561 1.55 463 1.55 519 1.55
 180  0.750  0.708  0.333- 464 1.55 512 1.55 520 1.55 562 1.55
 181  0.750  0.708  0.833- 563 1.55 521 1.55 513 1.55 465 1.55
 182  0.750  0.958  0.333- 556 1.55 514 1.55 522 1.55 466 1.55
 183  0.750  0.958  0.833- 467 1.55 515 1.55 557 1.55 523 1.55
 184  0.917  0.208  0.333- 516 1.55 468 1.55 476 1.55 566 1.55
 185  0.917  0.208  0.833- 469 1.55 517 1.55 477 1.55 567 1.55
 186  0.917  0.458  0.333- 470 1.55 568 1.55 518 1.55 478 1.55
 187  0.917  0.458  0.833- 471 1.55 569 1.55 519 1.55 479 1.55
 188  0.917  0.708  0.333- 472 1.55 520 1.55 570 1.55 480 1.55
 189  0.917  0.708  0.833- 571 1.55 473 1.55 481 1.55 521 1.55
 190  0.917  0.958  0.333- 522 1.55 474 1.55 482 1.55 564 1.55
 191  0.917  0.958  0.833- 475 1.55 523 1.55 565 1.55 483 1.55
 192  0.000  0.167  0.167- 375 1.55 335 1.55 476 1.55 290 1.55
 193  0.000  0.167  0.667- 477 1.55 376 1.55 336 1.55 291 1.55
 194  0.000  0.417  0.167- 377 1.55 337 1.55 478 1.55 292 1.55
 195  0.000  0.417  0.667- 479 1.55 293 1.55 378 1.55 338 1.55
 196  0.000  0.667  0.167- 480 1.55 379 1.55 339 1.55 294 1.55
 197  0.000  0.667  0.667- 481 1.55 295 1.55 380 1.55 340 1.55
 198  0.000  0.917  0.167- 381 1.55 341 1.55 482 1.55 288 1.55
 199  0.000  0.917  0.667- 483 1.55 382 1.55 342 1.55 289 1.55
 200  0.167  0.167  0.167- 335 1.55 484 1.55 298 1.55 343 1.55
 201  0.167  0.167  0.667- 485 1.55 344 1.55 299 1.55 336 1.55
 202  0.167  0.417  0.167- 337 1.55 300 1.55 486 1.55 345 1.55
 203  0.167  0.417  0.667- 301 1.55 487 1.55 346 1.55 338 1.55
 204  0.167  0.667  0.167- 347 1.55 488 1.55 302 1.55 339 1.55
 205  0.167  0.667  0.667- 489 1.55 303 1.55 340 1.55 348 1.55
 206  0.167  0.917  0.167- 490 1.55 296 1.55 349 1.55 341 1.55
 207  0.167  0.917  0.667- 350 1.55 491 1.55 297 1.55 342 1.55
 208  0.333  0.167  0.167- 492 1.55 306 1.55 343 1.55 351 1.55
 209  0.333  0.167  0.667- 307 1.55 493 1.55 352 1.55 344 1.55
 210  0.333  0.416  0.166- 494 1.54 345 1.54 353 1.55 308 1.55
 211  0.334  0.417  0.667- 354 1.54 309 1.54 346 1.55 495 1.55
 212  0.333  0.667  0.167- 496 1.54 355 1.55 347 1.55 310 1.55
 213  0.334  0.667  0.666- 348 1.55 311 1.55 497 1.55 356 1.55
 214  0.333  0.917  0.167- 304 1.55 498 1.55 357 1.55 349 1.55
 215  0.333  0.917  0.667- 305 1.55 499 1.55 358 1.55 350 1.55
 216  0.500  0.167  0.167- 314 1.55 500 1.55 359 1.55 351 1.55
 217  0.500  0.167  0.667- 501 1.55 315 1.55 360 1.55 352 1.55
 218  0.500  0.417  0.167- 502 1.54 316 1.55 361 1.55 353 1.55
 219  0.500  0.417  0.669- 572 1.52 503 1.54 362 1.55 354 1.55
 220  0.500  0.667  0.167- 504 1.54 317 1.54 363 1.55 355 1.55
 221  0.500  0.667  0.667- 364 1.54 356 1.54 505 1.55 318 1.55
 222  0.500  0.917  0.167- 312 1.55 506 1.55 365 1.55 357 1.55
 223  0.500  0.917  0.667- 313 1.55 507 1.55 366 1.55 358 1.55
 224  0.667  0.167  0.167- 508 1.55 321 1.55 367 1.55 359 1.55
 225  0.667  0.167  0.667- 322 1.55 509 1.55 360 1.55 368 1.55
 226  0.667  0.416  0.166- 510 1.54 369 1.54 361 1.55 323 1.55
 227  0.666  0.417  0.667- 362 1.54 324 1.54 370 1.55 511 1.55
 228  0.667  0.667  0.167- 512 1.54 363 1.55 371 1.55 325 1.55
 229  0.666  0.667  0.666- 372 1.55 326 1.55 513 1.55 364 1.55
 230  0.667  0.917  0.167- 319 1.55 514 1.55 365 1.55 373 1.55
 231  0.667  0.917  0.667- 320 1.55 515 1.55 366 1.55 374 1.55
 232  0.833  0.167  0.167- 375 1.55 516 1.55 329 1.55 367 1.55
 233  0.833  0.167  0.667- 517 1.55 368 1.55 330 1.55 376 1.55
 234  0.833  0.417  0.167- 377 1.55 331 1.55 518 1.55 369 1.55
 235  0.833  0.417  0.667- 332 1.55 519 1.55 370 1.55 378 1.55
 236  0.833  0.667  0.167- 371 1.55 520 1.55 333 1.55 379 1.55
 237  0.833  0.667  0.667- 521 1.55 334 1.55 380 1.55 372 1.55
 238  0.833  0.917  0.167- 522 1.55 327 1.55 373 1.55 381 1.55
 239  0.833  0.917  0.667- 374 1.55 523 1.55 328 1.55 382 1.55
 240  0.083  0.042  0.167- 296 1.55 524 1.55 288 1.55 335 1.55
 241  0.083  0.042  0.667- 297 1.55 525 1.55 336 1.55 289 1.55
 242  0.083  0.292  0.167- 298 1.55 526 1.55 290 1.55 337 1.55
 243  0.083  0.292  0.667- 527 1.55 299 1.55 338 1.55 291 1.55
 244  0.083  0.542  0.167- 528 1.55 300 1.55 339 1.55 292 1.55
 245  0.083  0.542  0.667- 340 1.55 529 1.55 301 1.55 293 1.55
 246  0.083  0.792  0.167- 302 1.55 341 1.55 530 1.55 294 1.55
 247  0.083  0.792  0.667- 531 1.55 342 1.55 295 1.55 303 1.55
 248  0.250  0.042  0.167- 343 1.55 532 1.55 304 1.55 296 1.55
 249  0.250  0.042  0.667- 344 1.55 533 1.55 305 1.55 297 1.55
 250  0.250  0.292  0.167- 298 1.55 534 1.55 306 1.55 345 1.55
 251  0.250  0.292  0.667- 535 1.55 307 1.55 346 1.55 299 1.55
 252  0.250  0.542  0.167- 536 1.54 308 1.55 347 1.55 300 1.55
 253  0.251  0.541  0.666- 348 1.55 301 1.55 537 1.55 309 1.55
 254  0.250  0.792  0.167- 538 1.55 310 1.55 349 1.55 302 1.55
 255  0.250  0.792  0.667- 539 1.55 311 1.55 303 1.55 350 1.55
 256  0.417  0.042  0.167- 351 1.55 540 1.55 304 1.55 312 1.55
 257  0.417  0.042  0.667- 352 1.55 541 1.55 305 1.55 313 1.55
 258  0.417  0.292  0.167- 542 1.55 353 1.55 306 1.55 314 1.55
 259  0.417  0.292  0.666- 315 1.55 307 1.55 354 1.55 543 1.55
 260  0.417  0.542  0.168- 316 1.55 355 1.55 308 1.55 544 1.56
 261  0.417  0.542  0.669- 572 1.52 545 1.54 309 1.55 356 1.55
 262  0.417  0.792  0.167- 357 1.54 546 1.55 310 1.55 317 1.55
 263  0.417  0.792  0.667- 318 1.55 311 1.55 547 1.55 358 1.55
 264  0.583  0.042  0.167- 359 1.55 548 1.55 319 1.55 312 1.55
 265  0.583  0.042  0.667- 360 1.55 549 1.55 320 1.55 313 1.55
 266  0.583  0.292  0.167- 550 1.55 361 1.55 321 1.55 314 1.55
 267  0.583  0.292  0.666- 315 1.55 322 1.55 362 1.55 551 1.55
 268  0.583  0.542  0.168- 316 1.55 363 1.55 323 1.55 552 1.56
 269  0.583  0.542  0.669- 572 1.52 553 1.54 324 1.55 364 1.55
 270  0.583  0.792  0.167- 365 1.54 554 1.55 325 1.55 317 1.55
 271  0.583  0.792  0.667- 318 1.55 326 1.55 555 1.55 366 1.55
 272  0.750  0.042  0.167- 367 1.55 556 1.55 319 1.55 327 1.55
 273  0.750  0.042  0.667- 368 1.55 557 1.55 320 1.55 328 1.55
 274  0.750  0.292  0.167- 329 1.55 558 1.55 321 1.55 369 1.55
 275  0.750  0.292  0.667- 559 1.55 322 1.55 370 1.55 330 1.55
 276  0.750  0.542  0.167- 560 1.54 323 1.55 371 1.55 331 1.55
 277  0.749  0.541  0.666- 372 1.55 332 1.55 561 1.55 324 1.55
 278  0.750  0.792  0.167- 562 1.55 325 1.55 373 1.55 333 1.55
 279  0.750  0.792  0.667- 563 1.55 326 1.55 334 1.55 374 1.55
 280  0.917  0.042  0.167- 327 1.55 564 1.55 288 1.55 375 1.55
 281  0.917  0.042  0.667- 328 1.55 565 1.55 376 1.55 289 1.55
 282  0.917  0.292  0.167- 329 1.55 566 1.55 290 1.55 377 1.55
 283  0.917  0.292  0.667- 567 1.55 330 1.55 378 1.55 291 1.55
 284  0.917  0.542  0.167- 568 1.55 331 1.55 379 1.55 292 1.55
 285  0.917  0.542  0.667- 380 1.55 569 1.55 332 1.55 293 1.55
 286  0.917  0.792  0.167- 333 1.55 381 1.55 570 1.55 294 1.55
 287  0.917  0.792  0.667- 571 1.55 382 1.55 295 1.55 334 1.55
 288  0.000  1.000  0.125-   1 1.55 280 1.55 240 1.55 198 1.55
 289  0.000  1.000  0.625-   2 1.55 281 1.55 241 1.55 199 1.55
 290  0.000  0.250  0.125-   3 1.55 282 1.55 242 1.55 192 1.55
 291  0.000  0.250  0.625-   4 1.55 193 1.55 283 1.55 243 1.55
 292  0.000  0.500  0.125-   5 1.55 194 1.55 284 1.55 244 1.55
 293  0.000  0.500  0.625-   6 1.55 195 1.55 285 1.55 245 1.55
 294  0.000  0.750  0.125-   7 1.55 196 1.55 286 1.55 246 1.55
 295  0.000  0.750  0.625-   8 1.55 197 1.55 287 1.55 247 1.55
 296  0.167  1.000  0.125-   9 1.55 240 1.55 206 1.55 248 1.55
 297  0.167  1.000  0.625- 241 1.55  10 1.55 207 1.55 249 1.55
 298  0.167  0.250  0.125- 250 1.55  11 1.55 242 1.55 200 1.55
 299  0.167  0.250  0.625-  12 1.55 243 1.55 201 1.55 251 1.55
 300  0.167  0.500  0.125-  13 1.55 244 1.55 202 1.55 252 1.55
 301  0.167  0.500  0.625-  14 1.55 203 1.55 245 1.55 253 1.55
 302  0.167  0.750  0.125- 246 1.55  15 1.55 254 1.55 204 1.55
 303  0.167  0.750  0.625-  16 1.55 255 1.55 205 1.55 247 1.55
 304  0.333  0.000  0.125- 214 1.55  17 1.55 248 1.55 256 1.55
 305  0.333  0.000  0.625- 215 1.55  18 1.55 249 1.55 257 1.55
 306  0.333  0.250  0.125-  19 1.55 208 1.55 258 1.55 250 1.55
 307  0.333  0.250  0.625- 209 1.55 251 1.55  20 1.55 259 1.55
 308  0.333  0.500  0.126- 252 1.55  21 1.55 210 1.55 260 1.55
 309  0.334  0.500  0.625- 211 1.54 261 1.55 253 1.55  22 1.55
 310  0.333  0.750  0.125-  23 1.55 254 1.55 262 1.55 212 1.55
 311  0.333  0.750  0.625-  24 1.55 255 1.55 263 1.55 213 1.55
 312  0.500  0.000  0.125- 222 1.55  25 1.55 264 1.55 256 1.55
 313  0.500  0.000  0.625- 223 1.55  26 1.55 265 1.55 257 1.55
 314  0.500  0.250  0.125-  27 1.54 216 1.55 266 1.55 258 1.55
 315  0.500  0.250  0.625- 217 1.55  28 1.55 267 1.55 259 1.55
 316  0.500  0.500  0.126- 268 1.55 260 1.55  29 1.55 218 1.55
 317  0.500  0.750  0.125- 220 1.54  30 1.54 270 1.55 262 1.55
 318  0.500  0.750  0.625- 271 1.55 263 1.55  31 1.55 221 1.55
 319  0.667  0.000  0.125- 230 1.55  32 1.55 272 1.55 264 1.55
 320  0.667  0.000  0.625- 231 1.55  33 1.55 273 1.55 265 1.55
 321  0.667  0.250  0.125-  34 1.55 224 1.55 266 1.55 274 1.55
 322  0.667  0.250  0.625- 225 1.55 275 1.55  35 1.55 267 1.55
 323  0.667  0.500  0.126- 276 1.55  36 1.55 226 1.55 268 1.55
 324  0.666  0.500  0.625- 227 1.54 269 1.55 277 1.55  37 1.55
 325  0.667  0.750  0.125-  38 1.55 278 1.55 270 1.55 228 1.55
 326  0.667  0.750  0.625-  39 1.55 279 1.55 271 1.55 229 1.55
 327  0.833  1.000  0.125-  40 1.55 280 1.55 238 1.55 272 1.55
 328  0.833  1.000  0.625- 281 1.55  41 1.55 239 1.55 273 1.55
 329  0.833  0.250  0.125- 274 1.55  42 1.55 282 1.55 232 1.55
 330  0.833  0.250  0.625-  43 1.55 283 1.55 233 1.55 275 1.55
 331  0.833  0.500  0.125-  44 1.55 284 1.55 234 1.55 276 1.55
 332  0.833  0.500  0.625-  45 1.55 235 1.55 285 1.55 277 1.55
 333  0.833  0.750  0.125- 286 1.55  46 1.55 278 1.55 236 1.55
 334  0.833  0.750  0.625-  47 1.55 279 1.55 237 1.55 287 1.55
 335  0.083  0.125  0.125-  48 1.55 200 1.55 192 1.55 240 1.55
 336  0.083  0.125  0.625-  49 1.55 193 1.55 241 1.55 201 1.55
 337  0.083  0.375  0.125- 202 1.55 194 1.55  50 1.55 242 1.55
 338  0.083  0.375  0.625-  51 1.55 243 1.55 195 1.55 203 1.55
 339  0.083  0.625  0.125- 244 1.55 196 1.55  52 1.55 204 1.55
 340  0.083  0.625  0.625-  53 1.55 245 1.55 205 1.55 197 1.55
 341  0.083  0.875  0.125-  54 1.55 198 1.55 246 1.55 206 1.55
 342  0.083  0.875  0.625-  55 1.55 199 1.55 247 1.55 207 1.55
 343  0.250  0.125  0.125-  56 1.55 248 1.55 208 1.55 200 1.55
 344  0.250  0.125  0.625- 249 1.55 201 1.55  57 1.55 209 1.55
 345  0.250  0.375  0.125- 210 1.54  58 1.54 202 1.55 250 1.55
 346  0.250  0.375  0.625-  59 1.55 251 1.55 203 1.55 211 1.55
 347  0.250  0.625  0.125-  60 1.55 204 1.55 212 1.55 252 1.55
 348  0.250  0.625  0.625-  61 1.54 213 1.55 253 1.55 205 1.55
 349  0.250  0.875  0.125-  62 1.55 206 1.55 254 1.55 214 1.55
 350  0.250  0.875  0.625- 207 1.55  63 1.55 215 1.55 255 1.55
 351  0.417  0.125  0.125- 256 1.55  64 1.55 216 1.55 208 1.55
 352  0.417  0.125  0.625- 257 1.55  65 1.55 209 1.55 217 1.55
 353  0.417  0.375  0.125-  66 1.54 258 1.55 210 1.55 218 1.55
 354  0.417  0.375  0.625- 211 1.54 259 1.55 219 1.55  67 1.55
 355  0.417  0.625  0.125-  68 1.55 212 1.55 220 1.55 260 1.55
 356  0.418  0.625  0.625- 221 1.54 261 1.55 213 1.55  69 1.56
 357  0.417  0.875  0.125- 262 1.54  70 1.55 214 1.55 222 1.55
 358  0.417  0.875  0.625- 215 1.55 223 1.55 263 1.55  71 1.55
 359  0.583  0.125  0.125- 264 1.55  72 1.55 216 1.55 224 1.55
 360  0.583  0.125  0.625- 265 1.55  73 1.55 225 1.55 217 1.55
 361  0.583  0.375  0.125-  74 1.54 266 1.55 226 1.55 218 1.55
 362  0.583  0.375  0.625- 227 1.54 267 1.55 219 1.55  75 1.55
 363  0.583  0.625  0.125-  76 1.55 228 1.55 220 1.55 268 1.55
 364  0.582  0.625  0.625- 221 1.54 269 1.55 229 1.55  77 1.56
 365  0.583  0.875  0.125- 270 1.54  78 1.55 230 1.55 222 1.55
 366  0.583  0.875  0.625- 231 1.55 223 1.55 271 1.55  79 1.55
 367  0.750  0.125  0.125-  80 1.55 272 1.55 224 1.55 232 1.55
 368  0.750  0.125  0.625- 273 1.55 233 1.55  81 1.55 225 1.55
 369  0.750  0.375  0.125- 226 1.54  82 1.54 234 1.55 274 1.55
 370  0.750  0.375  0.625-  83 1.55 275 1.55 235 1.55 227 1.55
 371  0.750  0.625  0.125-  84 1.55 236 1.55 228 1.55 276 1.55
 372  0.750  0.625  0.625-  85 1.54 229 1.55 277 1.55 237 1.55
 373  0.750  0.875  0.125-  86 1.55 238 1.55 278 1.55 230 1.55
 374  0.750  0.875  0.625- 239 1.55  87 1.55 231 1.55 279 1.55
 375  0.917  0.125  0.125-  88 1.55 232 1.55 192 1.55 280 1.55
 376  0.917  0.125  0.625-  89 1.55 193 1.55 281 1.55 233 1.55
 377  0.917  0.375  0.125- 234 1.55 194 1.55  90 1.55 282 1.55
 378  0.917  0.375  0.625-  91 1.55 283 1.55 195 1.55 235 1.55
 379  0.917  0.625  0.125- 284 1.55 196 1.55  92 1.55 236 1.55
 380  0.917  0.625  0.625-  93 1.55 285 1.55 237 1.55 197 1.55
 381  0.917  0.875  0.125-  94 1.55 198 1.55 286 1.55 238 1.55
 382  0.917  0.875  0.625-  95 1.55 199 1.55 287 1.55 239 1.55
 383  0.000  0.083  0.458-  89 1.55  49 1.55  96 1.55   2 1.55
 384  0.000  0.083  0.958-  97 1.55  88 1.55  48 1.55   1 1.55
 385  0.000  0.333  0.458-  91 1.55  51 1.55  98 1.55   4 1.55
 386  0.000  0.333  0.958-  90 1.55  50 1.55  99 1.55   3 1.55
 387  0.000  0.583  0.458- 100 1.55   6 1.55  93 1.55  53 1.55
 388  0.000  0.583  0.958-   5 1.55  92 1.55  52 1.55 101 1.55
 389  0.000  0.833  0.458-  95 1.55  55 1.55 102 1.55   8 1.55
 390  0.000  0.833  0.958- 103 1.55   7 1.55  94 1.55  54 1.55
 391  0.167  0.083  0.458-  10 1.54  57 1.55  49 1.55 104 1.55
 392  0.167  0.083  0.958- 105 1.55  56 1.55   9 1.55  48 1.55
 393  0.167  0.333  0.458- 106 1.55  51 1.55  12 1.55  59 1.55
 394  0.167  0.333  0.958- 107 1.55  58 1.55  50 1.55  11 1.55
 395  0.167  0.583  0.458- 108 1.55  14 1.55  53 1.55  61 1.55
 396  0.167  0.583  0.958-  52 1.55  13 1.55  60 1.55 109 1.55
 397  0.167  0.833  0.458- 110 1.55  55 1.55  63 1.55  16 1.55
 398  0.167  0.833  0.958- 111 1.55  15 1.55  54 1.55  62 1.55
 399  0.333  0.083  0.458-  18 1.54 112 1.55  57 1.55  65 1.55
 400  0.333  0.083  0.958-  17 1.55 113 1.55  56 1.55  64 1.55
 401  0.333  0.332  0.458-  20 1.54  59 1.55 114 1.55  67 1.55
 402  0.333  0.333  0.958- 115 1.55  19 1.55  58 1.55  66 1.55
 403  0.335  0.583  0.458- 116 1.54  22 1.55  69 1.56  61 1.56
 404  0.333  0.583  0.959- 117 1.54  60 1.54  21 1.55  68 1.55
 405  0.333  0.834  0.458-  24 1.54  63 1.54 118 1.55  71 1.55
 406  0.333  0.833  0.958- 119 1.55  62 1.55  23 1.55  70 1.55
 407  0.500  0.083  0.458-  26 1.54  73 1.55  65 1.55 120 1.55
 408  0.500  0.083  0.958-  25 1.55 121 1.55  72 1.55  64 1.55
 409  0.500  0.333  0.458-  28 1.54 122 1.54  75 1.55  67 1.55
 410  0.500  0.333  0.959- 123 1.54  27 1.54  74 1.55  66 1.55
 411  0.500  0.583  0.959- 125 1.54  76 1.55  68 1.55  29 1.55
 412  0.500  0.834  0.458-  31 1.54  79 1.55  71 1.55 126 1.55
 413  0.500  0.833  0.958- 127 1.55  30 1.55  78 1.55  70 1.55
 414  0.667  0.083  0.458-  33 1.54 128 1.55  81 1.55  73 1.55
 415  0.667  0.083  0.958-  32 1.55 129 1.55  80 1.55  72 1.55
 416  0.667  0.332  0.458-  35 1.54  83 1.55 130 1.55  75 1.55
 417  0.667  0.333  0.958- 131 1.55  34 1.55  82 1.55  74 1.55
 418  0.665  0.583  0.458- 132 1.54  37 1.55  77 1.56  85 1.56
 419  0.667  0.583  0.959- 133 1.54  84 1.54  36 1.55  76 1.55
 420  0.667  0.834  0.458-  39 1.54  87 1.54 134 1.55  79 1.55
 421  0.667  0.833  0.958- 135 1.55  86 1.55  38 1.55  78 1.55
 422  0.833  0.083  0.458-  41 1.54  81 1.54  89 1.55 136 1.55
 423  0.833  0.083  0.958- 137 1.55  80 1.55  40 1.55  88 1.55
 424  0.833  0.333  0.458- 138 1.55  91 1.55  43 1.55  83 1.55
 425  0.833  0.333  0.958- 139 1.55  82 1.55  90 1.55  42 1.55
 426  0.833  0.583  0.458- 140 1.55  45 1.55  93 1.55  85 1.55
 427  0.833  0.583  0.958-  92 1.55  44 1.55  84 1.55 141 1.55
 428  0.833  0.833  0.458- 142 1.55  95 1.55  87 1.55  47 1.55
 429  0.833  0.833  0.958- 143 1.55  46 1.55  94 1.55  86 1.55
 430  0.083  0.208  0.458-  12 1.55   4 1.55 144 1.55  49 1.55
 431  0.083  0.208  0.958-  11 1.55 145 1.55   3 1.55  48 1.55
 432  0.083  0.458  0.458-   6 1.55  14 1.55 146 1.55  51 1.55
 433  0.083  0.458  0.958- 147 1.55  50 1.55   5 1.55  13 1.55
 434  0.083  0.708  0.458- 148 1.55  16 1.55  53 1.55   8 1.55
 435  0.083  0.708  0.958-  52 1.55  15 1.55 149 1.55   7 1.55
 436  0.083  0.958  0.458-  10 1.55   2 1.55  55 1.55 150 1.55
 437  0.083  0.958  0.958- 151 1.55   9 1.55  54 1.55   1 1.55
 438  0.250  0.208  0.458-  20 1.54  57 1.54 152 1.55  12 1.55
 439  0.250  0.208  0.958- 153 1.55  56 1.55  19 1.55  11 1.55
 440  0.250  0.458  0.458-  14 1.54 154 1.55  59 1.55  22 1.57
 441  0.250  0.458  0.958-  13 1.55  58 1.55 155 1.55  21 1.55
 442  0.250  0.708  0.458- 156 1.55  24 1.55  16 1.55  61 1.55
 443  0.250  0.708  0.958-  15 1.55  23 1.55  60 1.55 157 1.55
 444  0.250  0.958  0.458-  63 1.54  10 1.55 158 1.55  18 1.55
 445  0.250  0.958  0.958- 159 1.55  62 1.55   9 1.55  17 1.55
 446  0.417  0.208  0.458-  65 1.54 160 1.55  20 1.55  28 1.55
 447  0.417  0.208  0.958-  64 1.55 161 1.55  19 1.55  27 1.55
 448  0.417  0.458  0.959- 163 1.54  21 1.55  66 1.55  29 1.55
 449  0.416  0.710  0.458-  24 1.54  69 1.54  31 1.55 164 1.55
 450  0.417  0.708  0.958-  23 1.55  30 1.55 165 1.55  68 1.55
 451  0.417  0.958  0.458-  71 1.54  18 1.55  26 1.55 166 1.55
 452  0.417  0.958  0.958-  70 1.55 167 1.55  17 1.55  25 1.55
 453  0.583  0.208  0.458-  73 1.54 168 1.55  35 1.55  28 1.55
 454  0.583  0.208  0.958-  72 1.55 169 1.55  34 1.55  27 1.55
 455  0.583  0.458  0.959- 171 1.54  36 1.55  74 1.55  29 1.55
 456  0.584  0.710  0.458-  39 1.54  77 1.54  31 1.55 172 1.55
 457  0.583  0.708  0.958-  38 1.55  30 1.55 173 1.55  76 1.55
 458  0.583  0.958  0.458-  79 1.54  33 1.55  26 1.55 174 1.55
 459  0.583  0.958  0.958-  78 1.55 175 1.55  32 1.55  25 1.55
 460  0.750  0.208  0.458-  35 1.54  81 1.54 176 1.55  43 1.55
 461  0.750  0.208  0.958- 177 1.55  80 1.55  34 1.55  42 1.55
 462  0.750  0.458  0.458-  45 1.54 178 1.55  83 1.55  37 1.57
 463  0.750  0.458  0.958-  44 1.55  82 1.55 179 1.55  36 1.55
 464  0.750  0.708  0.458- 180 1.55  39 1.55  47 1.55  85 1.55
 465  0.750  0.708  0.958-  46 1.55  38 1.55  84 1.55 181 1.55
 466  0.750  0.958  0.458-  87 1.54  41 1.55 182 1.55  33 1.55
 467  0.750  0.958  0.958- 183 1.55  86 1.55  40 1.55  32 1.55
 468  0.917  0.208  0.458-  43 1.55   4 1.55 184 1.55  89 1.55
 469  0.917  0.208  0.958-  42 1.55 185 1.55   3 1.55  88 1.55
 470  0.917  0.458  0.458-   6 1.55  45 1.55 186 1.55  91 1.55
 471  0.917  0.458  0.958- 187 1.55  90 1.55   5 1.55  44 1.55
 472  0.917  0.708  0.458- 188 1.55  47 1.55  93 1.55   8 1.55
 473  0.917  0.708  0.958-  92 1.55  46 1.55 189 1.55   7 1.55
 474  0.917  0.958  0.458-  41 1.55   2 1.55  95 1.55 190 1.55
 475  0.917  0.958  0.958- 191 1.55  40 1.55  94 1.55   1 1.55
 476  0.000  0.167  0.292- 192 1.55 184 1.55 144 1.55  96 1.55
 477  0.000  0.167  0.792- 193 1.55 185 1.55 145 1.55  97 1.55
 478  0.000  0.417  0.292- 194 1.55 186 1.55 146 1.55  98 1.55
 479  0.000  0.417  0.792- 195 1.55  99 1.55 187 1.55 147 1.55
 480  0.000  0.667  0.292- 196 1.55 100 1.55 188 1.55 148 1.55
 481  0.000  0.667  0.792- 197 1.55 101 1.55 189 1.55 149 1.55
 482  0.000  0.917  0.292- 198 1.55 190 1.55 150 1.55 102 1.55
 483  0.000  0.917  0.792- 199 1.55 103 1.55 191 1.55 151 1.55
 484  0.167  0.167  0.292- 152 1.55 104 1.55 200 1.55 144 1.55
 485  0.167  0.167  0.792- 201 1.55 145 1.55 105 1.55 153 1.55
 486  0.167  0.417  0.292- 146 1.55 202 1.55 154 1.55 106 1.55
 487  0.167  0.417  0.792- 203 1.55 107 1.55 147 1.55 155 1.55
 488  0.167  0.667  0.292- 204 1.55 148 1.55 156 1.55 108 1.55
 489  0.167  0.667  0.792- 109 1.55 157 1.55 205 1.55 149 1.55
 490  0.167  0.917  0.292- 150 1.55 206 1.55 110 1.55 158 1.55
 491  0.167  0.917  0.792- 207 1.55 151 1.55 111 1.55 159 1.55
 492  0.333  0.167  0.292- 112 1.55 208 1.55 160 1.55 152 1.55
 493  0.333  0.167  0.792- 113 1.55 209 1.55 161 1.55 153 1.55
 494  0.333  0.416  0.290- 210 1.54 154 1.55 114 1.55 162 1.55
 495  0.333  0.417  0.792- 155 1.55 115 1.55 163 1.55 211 1.55
 496  0.333  0.667  0.292- 212 1.54 156 1.55 164 1.55 116 1.55
 497  0.334  0.667  0.792- 165 1.55 117 1.55 157 1.55 213 1.55
 498  0.333  0.917  0.292- 118 1.54 158 1.55 214 1.55 166 1.55
 499  0.333  0.917  0.792- 215 1.55 159 1.55 119 1.55 167 1.55
 500  0.500  0.167  0.292- 120 1.55 216 1.55 168 1.55 160 1.55
 501  0.500  0.167  0.792- 121 1.55 217 1.55 169 1.55 161 1.55
 502  0.500  0.417  0.292- 218 1.54 122 1.55 170 1.55 162 1.55
 503  0.500  0.416  0.793- 219 1.54 123 1.54 171 1.55 163 1.55
 504  0.500  0.667  0.291- 220 1.54 124 1.55 172 1.55 164 1.55
 505  0.500  0.667  0.792- 173 1.55 165 1.55 125 1.55 221 1.55
 506  0.500  0.917  0.292- 126 1.54 222 1.55 174 1.55 166 1.55
 507  0.500  0.917  0.792- 223 1.55 127 1.55 175 1.55 167 1.55
 508  0.667  0.167  0.292- 128 1.55 224 1.55 168 1.55 176 1.55
 509  0.667  0.167  0.792- 129 1.55 225 1.55 169 1.55 177 1.55
 510  0.667  0.416  0.290- 226 1.54 178 1.55 130 1.55 170 1.55
 511  0.667  0.417  0.792- 179 1.55 131 1.55 171 1.55 227 1.55
 512  0.667  0.667  0.292- 228 1.54 180 1.55 172 1.55 132 1.55
 513  0.666  0.667  0.792- 173 1.55 133 1.55 181 1.55 229 1.55
 514  0.667  0.917  0.292- 134 1.54 182 1.55 230 1.55 174 1.55
 515  0.667  0.917  0.792- 231 1.55 183 1.55 135 1.55 175 1.55
 516  0.833  0.167  0.292- 176 1.55 136 1.55 232 1.55 184 1.55
 517  0.833  0.167  0.792- 233 1.55 185 1.55 137 1.55 177 1.55
 518  0.833  0.417  0.292- 186 1.55 234 1.55 178 1.55 138 1.55
 519  0.833  0.417  0.792- 235 1.55 139 1.55 187 1.55 179 1.55
 520  0.833  0.667  0.292- 236 1.55 188 1.55 180 1.55 140 1.55
 521  0.833  0.667  0.792- 141 1.55 181 1.55 237 1.55 189 1.55
 522  0.833  0.917  0.292- 190 1.55 238 1.55 142 1.55 182 1.55
 523  0.833  0.917  0.792- 239 1.55 191 1.55 143 1.55 183 1.55
 524  0.083  0.042  0.292- 104 1.55 240 1.55  96 1.55 150 1.55
 525  0.083  0.042  0.792- 241 1.55 105 1.55  97 1.55 151 1.55
 526  0.083  0.292  0.292- 242 1.55 106 1.55 144 1.55  98 1.55
 527  0.083  0.292  0.792- 243 1.55 107 1.55 145 1.55  99 1.55
 528  0.083  0.542  0.292- 244 1.55 146 1.55 100 1.55 108 1.55
 529  0.083  0.542  0.792- 245 1.55 147 1.55 109 1.55 101 1.55
 530  0.083  0.792  0.292- 246 1.55 110 1.55 102 1.55 148 1.55
 531  0.083  0.792  0.792- 247 1.55 149 1.55 111 1.55 103 1.55
 532  0.250  0.042  0.292- 158 1.55 248 1.55 104 1.55 112 1.55
 533  0.250  0.042  0.792- 249 1.55 105 1.55 159 1.55 113 1.55
 534  0.250  0.292  0.292- 114 1.55 250 1.55 152 1.55 106 1.55
 535  0.250  0.292  0.792- 251 1.55 107 1.55 153 1.55 115 1.55
 536  0.250  0.542  0.292- 252 1.54 108 1.55 154 1.55 116 1.55
 537  0.250  0.542  0.792- 155 1.55 109 1.55 117 1.55 253 1.55
 538  0.250  0.792  0.292- 110 1.55 254 1.55 118 1.55 156 1.55
 539  0.250  0.792  0.792- 255 1.55 157 1.55 111 1.55 119 1.55
 540  0.417  0.042  0.292- 166 1.55 256 1.55 112 1.55 120 1.55
 541  0.417  0.042  0.792- 257 1.55 167 1.55 113 1.55 121 1.55
 542  0.417  0.292  0.292- 258 1.55 160 1.55 114 1.55 122 1.55
 543  0.417  0.292  0.792- 161 1.55 115 1.55 123 1.55 259 1.55
 544  0.417  0.542  0.294- 116 1.54 162 1.55 260 1.56 124 1.56
 545  0.416  0.542  0.793- 117 1.54 261 1.54 125 1.55 163 1.55
 546  0.417  0.792  0.292- 164 1.54 262 1.55 118 1.55 126 1.55
 547  0.417  0.792  0.792- 119 1.55 263 1.55 127 1.55 165 1.55
 548  0.583  0.042  0.292- 174 1.55 264 1.55 128 1.55 120 1.55
 549  0.583  0.042  0.792- 265 1.55 175 1.55 129 1.55 121 1.55
 550  0.583  0.292  0.292- 266 1.55 168 1.55 130 1.55 122 1.55
 551  0.583  0.292  0.792- 169 1.55 131 1.55 123 1.55 267 1.55
 552  0.583  0.542  0.294- 132 1.54 170 1.55 268 1.56 124 1.56
 553  0.584  0.542  0.793- 133 1.54 269 1.54 125 1.55 171 1.55
 554  0.583  0.792  0.292- 172 1.54 270 1.55 134 1.55 126 1.55
 555  0.583  0.792  0.792- 135 1.55 271 1.55 127 1.55 173 1.55
 556  0.750  0.042  0.292- 182 1.55 272 1.55 136 1.55 128 1.55
 557  0.750  0.042  0.792- 273 1.55 137 1.55 183 1.55 129 1.55
 558  0.750  0.292  0.292- 130 1.55 274 1.55 176 1.55 138 1.55
 559  0.750  0.292  0.792- 275 1.55 139 1.55 177 1.55 131 1.55
 560  0.750  0.542  0.292- 276 1.54 140 1.55 178 1.55 132 1.55
 561  0.750  0.542  0.792- 179 1.55 141 1.55 133 1.55 277 1.55
 562  0.750  0.792  0.292- 142 1.55 278 1.55 134 1.55 180 1.55
 563  0.750  0.792  0.792- 279 1.55 181 1.55 143 1.55 135 1.55
 564  0.917  0.042  0.292- 136 1.55 280 1.55  96 1.55 190 1.55
 565  0.917  0.042  0.792- 281 1.55 137 1.55  97 1.55 191 1.55
 566  0.917  0.292  0.292- 282 1.55 138 1.55 184 1.55  98 1.55
 567  0.917  0.292  0.792- 283 1.55 139 1.55 185 1.55  99 1.55
 568  0.917  0.542  0.292- 284 1.55 186 1.55 100 1.55 140 1.55
 569  0.917  0.542  0.792- 285 1.55 187 1.55 141 1.55 101 1.55
 570  0.917  0.792  0.292- 286 1.55 142 1.55 102 1.55 188 1.55
 571  0.917  0.792  0.792- 287 1.55 189 1.55 143 1.55 103 1.55
 572  0.500  0.500  0.634- 573 1.09 269 1.52 261 1.52 219 1.52
 573  0.500  0.499  0.546- 572 1.09
 574  0.412  0.454  0.454- 162 1.49  67 1.49  22 1.51
 575  0.588  0.454  0.454- 170 1.49  75 1.49  37 1.51
 576  0.500  0.591  0.455-  77 1.48  69 1.48 124 1.48
 
  LATTYP: Found a simple monoclinic cell.
 ALAT       =    12.3703241348
 B/A-ratio  =     1.2248453018
 C/A-ratio  =     1.4141600350
 COS(beta)  =    -0.0000282295
  
  Lattice vectors:
  
 A1 = (   0.0000000000,  -0.0003492082,  12.3703241299)
 A2 = (  15.1517333984,   0.0000000000,   0.0000000000)
 A3 = (   0.0000000000,  17.4936180115,   0.0000000000)


Analysis of symmetry for initial positions (statically):
=====================================================================
 Subroutine PRICEL returns:
 Original cell was already a primitive cell.
 

 Routine SETGRP: Setting up the symmetry group for a 
 simple monoclinic supercell.


 Subroutine GETGRP returns: Found  2 space group operations
 (whereof  2 operations were pure point group operations)
 out of a pool of  4 trial point group operations.


The static configuration has the point symmetry C_1h.


Analysis of symmetry for dynamics (positions and initial velocities):
=====================================================================
 Subroutine PRICEL returns:
 Original cell was already a primitive cell.
 

 Routine SETGRP: Setting up the symmetry group for a 
 simple monoclinic supercell.


 Subroutine GETGRP returns: Found  2 space group operations
 (whereof  2 operations were pure point group operations)
 out of a pool of  4 trial point group operations.


The dynamic configuration has the point symmetry C_1h.


Analysis of structural, dynamic, and magnetic symmetry:
=====================================================================
 Subroutine PRICEL returns:
 Original cell was already a primitive cell.
 

 Routine SETGRP: Setting up the symmetry group for a 
 simple monoclinic supercell.


 Subroutine GETGRP returns: Found  2 space group operations
 (whereof  2 operations were pure point group operations)
 out of a pool of  4 trial point group operations.


The overall configuration has the point symmetry C_1h.


 Subroutine INISYM returns: Found  2 space group operations
 (whereof  2 operations are pure point group operations),
 and found     1 'primitive' translations


----------------------------------------------------------------------------------------

                                     Primitive cell                                     

  volume of cell :    3278.8612

  direct lattice vectors                    reciprocal lattice vectors
    15.151733398  0.000000000  0.000000000     0.065999049  0.000000000  0.000000000
     0.000000000 17.493618012  0.000000000     0.000000000  0.057163704  0.000001614
     0.000000000 -0.000349208 12.370324130     0.000000000  0.000000000  0.080838626

  length of vectors
    15.151733398 17.493618012 12.370324135     0.065999049  0.057163704  0.080838626

  position of ions in fractional coordinates (direct lattice)
     0.000000000  0.999979835  0.999987953
     0.000000000  0.999951134  0.500004833
     0.000000000  0.250000419  0.999952932
     0.000000000  0.249985353  0.499967350
     0.000000000  0.499994465  0.000049761
     0.000000000  0.499938181  0.499991166
     0.000000000  0.749953755  0.999991129
     0.000000000  0.749922082  0.500032751
     0.166640180  0.999997197  0.000000463
     0.166573094  0.999980426  0.500002880
     0.166629049  0.249986027  0.999942954
     0.166639545  0.249923973  0.499984487
     0.166707402  0.499998470  0.000119843
     0.166718335  0.499876498  0.499952867
     0.166683679  0.749974977  0.000007407
     0.166739492  0.749918440  0.500025551
     0.333319833  0.000028812  0.999992103
     0.333282795  0.000050218  0.500008827
     0.333321622  0.249970327  0.000032235
     0.333004290  0.249499315  0.499911000
     0.333408383  0.500074990  0.000535484
     0.335589847  0.499261959  0.499428793
     0.333344946  0.750028247  0.000082959
     0.333186494  0.750574458  0.499968511
     0.500000000  0.000045975  0.999974627
     0.500000000  0.000065689  0.500007814
     0.500000000  0.249907072  0.000229587
     0.500000000  0.249983250  0.499846448
     0.500000000  0.500035297  0.000570362
     0.500000000  0.750119241  0.999968637
     0.500000000  0.750689187  0.500058656
     0.666680197  0.000028812  0.999992103
     0.666717235  0.000050218  0.500008827
     0.666678408  0.249970327  0.000032235
     0.666995740  0.249499315  0.499911000
     0.666591647  0.500074990  0.000535484
     0.664410183  0.499261959  0.499428793
     0.666655084  0.750028247  0.000082959
     0.666813536  0.750574458  0.499968511
     0.833359805  0.999997197  0.000000463
     0.833426891  0.999980426  0.500002880
     0.833370936  0.249986027  0.999942954
     0.833360440  0.249923973  0.499984487
     0.833292583  0.499998470  0.000119843
     0.833281650  0.499876498  0.499952867
     0.833316306  0.749974977  0.000007407
     0.833260493  0.749918440  0.500025551
     0.083310204  0.124993255  0.999961667
     0.083293458  0.124971408  0.499985837
     0.083320708  0.374992363  0.999950396
     0.083361723  0.374977389  0.499989203
     0.083349089  0.624971806  0.000056496
     0.083560119  0.624938026  0.500018217
     0.083321191  0.874972422  0.999997377
     0.083314020  0.874938918  0.500007992
     0.249975224  0.124996304  0.999982757
     0.249837182  0.124824071  0.499978316
     0.249899370  0.374923698  0.999857314
     0.250194393  0.374883468  0.500008260
     0.249965339  0.625032822  0.000350486
     0.251030116  0.624819441  0.499981764
     0.249983278  0.875006659  0.000009031
     0.249908251  0.875167146  0.499993282
     0.416657255  0.125001399  0.000013327
     0.416646776  0.124948759  0.499979163
     0.416666035  0.374900978  0.000280052
     0.416645564  0.375134605  0.499164014
     0.416642339  0.625042300  0.000515699
     0.418570326  0.626055841  0.498460026
     0.416664513  0.875074892  0.999960376
     0.416617963  0.875266270  0.500010819
     0.583342715  0.125001399  0.000013327
     0.583353194  0.124948759  0.499979163
     0.583333935  0.374900978  0.000280052
     0.583354406  0.375134605  0.499164014
     0.583357631  0.625042300  0.000515699
     0.581429644  0.626055841  0.498460026
     0.583335457  0.875074892  0.999960376
     0.583382007  0.875266270  0.500010819
     0.750024776  0.124996304  0.999982757
     0.750162818  0.124824071  0.499978316
     0.750100630  0.374923698  0.999857314
     0.749805607  0.374883468  0.500008260
     0.750034661  0.625032822  0.000350486
     0.748969884  0.624819441  0.499981764
     0.750016722  0.875006659  0.000009031
     0.750091749  0.875167146  0.499993282
     0.916689819  0.124993255  0.999961667
     0.916706565  0.124971408  0.499985837
     0.916679315  0.374992363  0.999950396
     0.916638300  0.374977389  0.499989203
     0.916650934  0.624971806  0.000056496
     0.916439904  0.624938026  0.500018217
     0.916678832  0.874972422  0.999997377
     0.916686003  0.874938918  0.500007992
     0.000000000  0.083309544  0.333320549
     0.000000000  0.083331060  0.833306466
     0.000000000  0.333323766  0.333331770
     0.000000000  0.333340861  0.833271103
     0.000000000  0.583286561  0.333406660
     0.000000000  0.583294345  0.833332069
     0.000000000  0.833280318  0.333347449
     0.000000000  0.833280803  0.833324386
     0.166602435  0.083294588  0.333301842
     0.166661609  0.083335875  0.833313852
     0.166738385  0.333306207  0.333348217
     0.166680554  0.333327386  0.833232741
     0.166898124  0.583275938  0.333455569
     0.166770031  0.583276408  0.833312213
     0.166664959  0.833329641  0.333342549
     0.166678196  0.833302263  0.833327217
     0.333273894  0.083321714  0.333317078
     0.333308287  0.083344907  0.833332069
     0.333307046  0.333117967  0.333242932
     0.333375061  0.333331562  0.833355144
     0.333740632  0.583235114  0.333669383
     0.333202259  0.583452932  0.834186509
     0.333250545  0.833562874  0.333280606
     0.333318090  0.833361550  0.833350053
     0.500000000  0.083327023  0.333340188
     0.500000000  0.083371148  0.833325309
     0.500000000  0.333263876  0.333434201
     0.500000000  0.333097046  0.834114293
     0.500000000  0.584970353  0.335615021
     0.500000000  0.583500885  0.834186121
     0.500000000  0.833589099  0.333298829
     0.500000000  0.833409495  0.833330825
     0.666726136  0.083321714  0.333317078
     0.666691743  0.083344907  0.833332069
     0.666692984  0.333117967  0.333242932
     0.666624969  0.333331562  0.833355144
     0.666259398  0.583235114  0.333669383
     0.666797771  0.583452932  0.834186509
     0.666749485  0.833562874  0.333280606
     0.666681940  0.833361550  0.833350053
     0.833397550  0.083294588  0.333301842
     0.833338376  0.083335875  0.833313852
     0.833261600  0.333306207  0.333348217
     0.833319431  0.333327386  0.833232741
     0.833101861  0.583275938  0.333455569
     0.833229954  0.583276408  0.833312213
     0.833335026  0.833329641  0.333342549
     0.833321789  0.833302263  0.833327217
     0.083338782  0.208320110  0.333320942
     0.083347168  0.208342290  0.833288204
     0.083369121  0.458290921  0.333361091
     0.083388884  0.458334819  0.833342484
     0.083377145  0.708288774  0.333422407
     0.083398449  0.708268920  0.833288792
     0.083321135  0.958300681  0.333339214
     0.083341477  0.958313650  0.833342486
     0.249913966  0.208211551  0.333323135
     0.250003471  0.208345216  0.833344327
     0.250171146  0.458229202  0.333338279
     0.250124519  0.458342952  0.833444746
     0.250083657  0.708354506  0.333449842
     0.250121209  0.708306679  0.833235421
     0.249934644  0.958398592  0.333339512
     0.249979169  0.958344700  0.833378975
     0.416630972  0.208253299  0.333347942
     0.416634099  0.208336924  0.833347465
     0.416617639  0.457706995  0.334276711
     0.416628219  0.458319041  0.834054397
     0.416550705  0.708866304  0.333180857
     0.416685004  0.708363641  0.833435879
     0.416622188  0.958435898  0.333319833
     0.416642645  0.958382287  0.833338296
     0.583368998  0.208253299  0.333347942
     0.583365871  0.208336924  0.833347465
     0.583382331  0.457706995  0.334276711
     0.583371751  0.458319041  0.834054397
     0.583449265  0.708866304  0.333180857
     0.583314966  0.708363641  0.833435879
     0.583377782  0.958435898  0.333319833
     0.583357325  0.958382287  0.833338296
     0.750086034  0.208211551  0.333323135
     0.749996529  0.208345216  0.833344327
     0.749828854  0.458229202  0.333338279
     0.749875481  0.458342952  0.833444746
     0.749916343  0.708354506  0.333449842
     0.749878791  0.708306679  0.833235421
     0.750065356  0.958398592  0.333339512
     0.750020831  0.958344700  0.833378975
     0.916661241  0.208320110  0.333320942
     0.916652855  0.208342290  0.833288204
     0.916630902  0.458290921  0.333361091
     0.916611139  0.458334819  0.833342484
     0.916622878  0.708288774  0.333422407
     0.916601574  0.708268920  0.833288792
     0.916678888  0.958300681  0.333339214
     0.916658546  0.958313650  0.833342486
     0.000000000  0.166660104  0.166625766
     0.000000000  0.166676417  0.666623160
     0.000000000  0.416651628  0.166654176
     0.000000000  0.416663541  0.666632415
     0.000000000  0.666636743  0.166733719
     0.000000000  0.666589727  0.666611598
     0.000000000  0.916637670  0.166654893
     0.000000000  0.916623564  0.666665825
     0.166613508  0.166641448  0.166625326
     0.166657029  0.166676855  0.666652176
     0.166652224  0.416621442  0.166645930
     0.166840159  0.416667748  0.666635578
     0.166691914  0.666666768  0.166848850
     0.166922034  0.666557667  0.666555007
     0.166634816  0.916671151  0.166665631
     0.166646330  0.916656693  0.666691066
     0.333297631  0.166640394  0.166669618
     0.333324924  0.166686134  0.666691101
     0.333013236  0.416405019  0.166310925
     0.333735324  0.416703182  0.666579274
     0.333365082  0.666728784  0.166931344
     0.333822275  0.666549495  0.666078024
     0.333298343  0.916760654  0.166626030
     0.333309892  0.916732476  0.666697790
     0.500000000  0.166632096  0.166727256
     0.500000000  0.166753492  0.666628584
     0.500000000  0.416518513  0.167052836
     0.500000000  0.416731608  0.668688583
     0.500000000  0.667081903  0.166522927
     0.500000000  0.666737848  0.666767930
     0.500000000  0.916781678  0.166608825
     0.500000000  0.916761190  0.666672749
     0.666702399  0.166640394  0.166669618
     0.666675106  0.166686134  0.666691101
     0.666986794  0.416405019  0.166310925
     0.666264706  0.416703182  0.666579274
     0.666634948  0.666728784  0.166931344
     0.666177755  0.666549495  0.666078024
     0.666701687  0.916760654  0.166626030
     0.666690138  0.916732476  0.666697790
     0.833386477  0.166641448  0.166625326
     0.833342956  0.166676855  0.666652176
     0.833347761  0.416621442  0.166645930
     0.833159826  0.416667748  0.666635578
     0.833308071  0.666666768  0.166848850
     0.833077951  0.666557667  0.666555007
     0.833365169  0.916671151  0.166665631
     0.833353655  0.916656693  0.666691066
     0.083316807  0.041650703  0.166633672
     0.083327594  0.041657034  0.666657793
     0.083339892  0.291660534  0.166634619
     0.083362819  0.291677930  0.666600989
     0.083383548  0.541653723  0.166764720
     0.083462299  0.541610858  0.666637654
     0.083347589  0.791638453  0.166673174
     0.083371535  0.791598892  0.666656261
     0.249960423  0.041678113  0.166620639
     0.249960810  0.041673251  0.666657527
     0.249935239  0.291589064  0.166564723
     0.250082252  0.291691856  0.666600561
     0.250114633  0.541667765  0.166962958
     0.250545903  0.541477104  0.666405808
     0.249994374  0.791699430  0.166678947
     0.250041930  0.791661852  0.666654113
     0.416637795  0.041703362  0.166641196
     0.416645256  0.041718697  0.666667476
     0.416640407  0.291581219  0.166754043
     0.416711483  0.291871347  0.666490371
     0.417038546  0.541781136  0.167836185
     0.416950163  0.541681405  0.668743108
     0.416640294  0.791869782  0.166577784
     0.416666427  0.791774791  0.666706685
     0.583362175  0.041703362  0.166641196
     0.583354714  0.041718697  0.666667476
     0.583359563  0.291581219  0.166754043
     0.583288487  0.291871347  0.666490371
     0.582961424  0.541781136  0.167836185
     0.583049807  0.541681405  0.668743108
     0.583359676  0.791869782  0.166577784
     0.583333543  0.791774791  0.666706685
     0.750039577  0.041678113  0.166620639
     0.750039190  0.041673251  0.666657527
     0.750064761  0.291589064  0.166564723
     0.749917748  0.291691856  0.666600561
     0.749885367  0.541667765  0.166962958
     0.749454097  0.541477104  0.666405808
     0.750005626  0.791699430  0.166678947
     0.749958070  0.791661852  0.666654113
     0.916683216  0.041650703  0.166633672
     0.916672429  0.041657034  0.666657793
     0.916660131  0.291660534  0.166634619
     0.916637204  0.291677930  0.666600989
     0.916616475  0.541653723  0.166764720
     0.916537724  0.541610858  0.666637654
     0.916652434  0.791638453  0.166673174
     0.916628488  0.791598892  0.666656261
     0.000000000  0.999974888  0.124965403
     0.000000000  0.999969761  0.624989236
     0.000000000  0.250007825  0.124942497
     0.000000000  0.250025285  0.624931793
     0.000000000  0.500011702  0.125047670
     0.000000000  0.500000414  0.624972794
     0.000000000  0.749965938  0.124998065
     0.000000000  0.749937455  0.624993330
     0.166631618  0.999996472  0.124962029
     0.166623899  0.999984128  0.624991379
     0.166633731  0.249973249  0.124908367
     0.166698949  0.250013980  0.624952522
     0.166724508  0.500002701  0.125099642
     0.166873986  0.499986304  0.624918536
     0.166674597  0.749985405  0.125020672
     0.166734384  0.749934138  0.624970384
     0.333310259  0.000042946  0.124942354
     0.333313159  0.000040553  0.624994867
     0.333324824  0.249953199  0.124963614
     0.333361361  0.249956277  0.624931488
     0.333459107  0.500014105  0.125544130
     0.334307949  0.499872005  0.624879346
     0.333340281  0.750059866  0.125045511
     0.333399176  0.750098264  0.624921137
     0.500000000  0.000053646  0.124949556
     0.500000000  0.000063562  0.624996440
     0.500000000  0.249918563  0.125071393
     0.500000000  0.250071999  0.624872882
     0.500000000  0.499989279  0.125627709
     0.500000000  0.750224918  0.124781135
     0.500000000  0.750187914  0.625065146
     0.666689771  0.000042946  0.124942354
     0.666686871  0.000040553  0.624994867
     0.666675206  0.249953199  0.124963614
     0.666638669  0.249956277  0.624931488
     0.666540923  0.500014105  0.125544130
     0.665692081  0.499872005  0.624879346
     0.666659749  0.750059866  0.125045511
     0.666600854  0.750098264  0.624921137
     0.833368367  0.999996472  0.124962029
     0.833376086  0.999984128  0.624991379
     0.833366254  0.249973249  0.124908367
     0.833301036  0.250013980  0.624952522
     0.833275477  0.500002701  0.125099642
     0.833125999  0.499986304  0.624918536
     0.833325388  0.749985405  0.125020672
     0.833265601  0.749934138  0.624970384
     0.083304975  0.124983652  0.124941411
     0.083317916  0.124996760  0.624974026
     0.083319553  0.375010481  0.124944464
     0.083392384  0.375031760  0.624971219
     0.083352538  0.624988246  0.125078558
     0.083459351  0.624937627  0.624950409
     0.083318458  0.874973218  0.124984604
     0.083328414  0.874948061  0.624996490
     0.249967186  0.124994680  0.124954632
     0.249966767  0.124974694  0.624990420
     0.249863808  0.374908407  0.124605076
     0.250210154  0.375040164  0.624965396
     0.250003021  0.625038129  0.125254306
     0.250471018  0.624852974  0.624807701
     0.249975935  0.875030070  0.124983702
     0.249979648  0.875037331  0.625000028
     0.416657906  0.124992996  0.124985946
     0.416672416  0.125024215  0.624983903
     0.416628802  0.374902158  0.125021312
     0.416965037  0.375331223  0.624857204
     0.416728795  0.625076575  0.125427105
     0.417674055  0.624669887  0.624584224
     0.416650050  0.875120387  0.124908456
     0.416656095  0.875113487  0.625023197
     0.583342064  0.124992996  0.124985946
     0.583327554  0.125024215  0.624983903
     0.583371168  0.374902158  0.125021312
     0.583034933  0.375331223  0.624857204
     0.583271175  0.625076575  0.125427105
     0.582325915  0.624669887  0.624584224
     0.583349920  0.875120387  0.124908456
     0.583343875  0.875113487  0.625023197
     0.750032814  0.124994680  0.124954632
     0.750033233  0.124974694  0.624990420
     0.750136192  0.374908407  0.124605076
     0.749789846  0.375040164  0.624965396
     0.749996979  0.625038129  0.125254306
     0.749528982  0.624852974  0.624807701
     0.750024065  0.875030070  0.124983702
     0.750020352  0.875037331  0.625000028
     0.916695048  0.124983652  0.124941411
     0.916682107  0.124996760  0.624974026
     0.916680470  0.375010481  0.124944464
     0.916607639  0.375031760  0.624971219
     0.916647485  0.624988246  0.125078558
     0.916540672  0.624937627  0.624950409
     0.916681565  0.874973218  0.124984604
     0.916671609  0.874948061  0.624996490
     0.000000000  0.083295588  0.458330705
     0.000000000  0.083320637  0.958287995
     0.000000000  0.333343933  0.458342163
     0.000000000  0.333350030  0.958258976
     0.000000000  0.583278627  0.458364578
     0.000000000  0.583326542  0.958357548
     0.000000000  0.833260072  0.458349810
     0.000000000  0.833292105  0.958318519
     0.166562031  0.083227923  0.458324727
     0.166650190  0.083327337  0.958291647
     0.166733884  0.333315378  0.458364947
     0.166624712  0.333317959  0.958140242
     0.167152622  0.583221953  0.458351915
     0.166702967  0.583328918  0.958395250
     0.166670684  0.833309474  0.458333974
     0.166659725  0.833308349  0.958316794
     0.333272350  0.083283652  0.458328543
     0.333319626  0.083334021  0.958301874
     0.333166852  0.332344014  0.458474361
     0.333333041  0.333297421  0.958312120
     0.335039901  0.582896928  0.458083753
     0.333184364  0.583459602  0.958885664
     0.333163886  0.833699918  0.458318845
     0.333321816  0.833356838  0.958329910
     0.500000000  0.083299536  0.458350757
     0.500000000  0.083351254  0.958305581
     0.500000000  0.333154409  0.458282938
     0.500000000  0.333105649  0.958690899
     0.500000000  0.583434601  0.958908805
     0.500000000  0.833753150  0.458355400
     0.500000000  0.833403813  0.958271159
     0.666727680  0.083283652  0.458328543
     0.666680404  0.083334021  0.958301874
     0.666833178  0.332344014  0.458474361
     0.666666989  0.333297421  0.958312120
     0.664960129  0.582896928  0.458083753
     0.666815666  0.583459602  0.958885664
     0.666836144  0.833699918  0.458318845
     0.666678214  0.833356838  0.958329910
     0.833437954  0.083227923  0.458324727
     0.833349795  0.083327337  0.958291647
     0.833266101  0.333315378  0.458364947
     0.833375273  0.333317959  0.958140242
     0.832847363  0.583221953  0.458351915
     0.833297018  0.583328918  0.958395250
     0.833329301  0.833309474  0.458333974
     0.833340260  0.833308349  0.958316794
     0.083324276  0.208314991  0.458326372
     0.083335368  0.208333452  0.958266097
     0.083313986  0.458351474  0.458361587
     0.083365102  0.458351291  0.958344995
     0.083395763  0.708276762  0.458388401
     0.083365999  0.708292225  0.958311777
     0.083314655  0.958271491  0.458340499
     0.083334754  0.958310958  0.958320478
     0.249841991  0.207987012  0.458359969
     0.249988729  0.208328833  0.958309678
     0.249947908  0.458418982  0.458484047
     0.250058799  0.458359547  0.958490489
     0.250213258  0.708340889  0.458386953
     0.250043942  0.708317646  0.958361870
     0.249906851  0.958410823  0.458353027
     0.249981733  0.958339191  0.958349538
     0.416613930  0.208153614  0.458339585
     0.416650523  0.208304810  0.958349299
     0.416632388  0.458325676  0.958833195
     0.416232892  0.709512982  0.458349992
     0.416649340  0.708359263  0.958478550
     0.416621985  0.958462197  0.458344095
     0.416647560  0.958375098  0.958298795
     0.583386040  0.208153614  0.458339585
     0.583349447  0.208304810  0.958349299
     0.583367582  0.458325676  0.958833195
     0.583767078  0.709512982  0.458349992
     0.583350630  0.708359263  0.958478550
     0.583377985  0.958462197  0.458344095
     0.583352410  0.958375098  0.958298795
     0.750158009  0.207987012  0.458359969
     0.750011271  0.208328833  0.958309678
     0.750052092  0.458418982  0.458484047
[...]
 196      -0.003     0.001     0.004       0.886
 197       0.005     0.001    -0.007       0.623
 198       0.002     0.000    -0.002       0.809
 199      -0.003     0.000     0.003       1.002
 200       0.004    -0.003     0.005      -1.461
 201       0.005     0.004    -0.006       0.193
 202       0.015    -0.005     0.024      -0.820
 203       0.017     0.009    -0.021       0.417
 204       0.005     0.002    -0.008       0.327
 205       0.002    -0.001    -0.020       0.168
 206       0.002     0.001    -0.003       0.266
 207       0.003     0.001    -0.004       0.409
 208       0.002     0.000    -0.013       0.143
 209       0.009    -0.008     0.011      -1.552
 210      -0.196    -0.188    -0.331      -0.026
 211       0.086    -0.005     0.099      -0.918
 212      -0.011     0.010     0.013       1.647
 213       0.006     0.003    -0.034       0.101
 214       0.004     0.002    -0.005       0.325
 215       0.004     0.003    -0.006       0.150
 216       0.009    -0.007     0.011      -1.374
 217       0.011    -0.009     0.012      -1.743
 218       0.087     0.052     0.111      -0.322
 219       0.090    -0.034     0.112      -1.110
 220       0.012     0.011    -0.016       0.067
 221       0.017     0.016    -0.028       0.019
 222       0.005     0.002    -0.006       0.426
 223       0.005     0.003    -0.008       0.234
 224       0.002     0.000    -0.013       0.143
 225       0.009    -0.008     0.011      -1.552
 226      -0.196    -0.188    -0.331      -0.026
 227       0.086    -0.005     0.099      -0.918
 228      -0.011     0.010     0.013       1.647
 229       0.006     0.003    -0.034       0.101
 230       0.004     0.002    -0.005       0.325
 231       0.004     0.003    -0.006       0.150
 232       0.004    -0.003     0.005      -1.461
 233       0.005     0.004    -0.006       0.193
 234       0.015    -0.005     0.024      -0.820
 235       0.017     0.009    -0.021       0.417
 236       0.005     0.002    -0.008       0.327
 237       0.002    -0.001    -0.020       0.168
 238       0.002     0.001    -0.003       0.266
 239       0.003     0.001    -0.004       0.409
 240      -0.002     0.001     0.003       1.111
 241       0.003     0.000    -0.003       0.836
 242      -0.004     0.004     0.009       0.878
 243      -0.007     0.004     0.008       1.367
 244      -0.008     0.003     0.010       1.017
 245      -0.012     0.005     0.013       1.258
 246      -0.002     0.000     0.002       1.140
 247       0.003    -0.000    -0.004       0.836
 248       0.003     0.002    -0.005       0.162
 249       0.004     0.003    -0.005       0.114
 250       0.020    -0.002     0.022      -0.988
 251      -0.017     0.015     0.018       1.776
 252       0.015     0.010    -0.021       0.230
 253       0.058     0.019     0.069      -0.557
 254       0.004     0.003    -0.005       0.178
 255       0.003     0.002    -0.009       0.127
 256       0.004     0.002    -0.007       0.361
 257       0.005     0.004    -0.007       0.202
 258       0.020    -0.013     0.022      -1.528
 259       0.029     0.024    -0.030       0.186
 260      -0.030     0.027     0.034       1.668
 261      -0.290    -0.221    -0.445      -0.155
 262       0.006     0.003    -0.008       0.383
 263       0.006     0.005    -0.011       0.130
 264       0.004     0.002    -0.007       0.361
 265       0.005     0.004    -0.007       0.202
 266       0.020    -0.013     0.022      -1.528
 267       0.029     0.024    -0.030       0.186
 268      -0.030     0.027     0.034       1.668
 269      -0.290    -0.221    -0.445      -0.155
 270       0.006     0.003    -0.008       0.383
 271       0.006     0.005    -0.011       0.130
 272       0.003     0.002    -0.005       0.162
 273       0.004     0.003    -0.005       0.114
 274       0.020    -0.002     0.022      -0.988
 275      -0.017     0.015     0.018       1.776
 276       0.015     0.010    -0.021       0.230
 277       0.058     0.019     0.069      -0.557
 278       0.004     0.003    -0.005       0.178
 279       0.003     0.002    -0.009       0.127
 280      -0.002     0.001     0.003       1.111
 281       0.003     0.000    -0.003       0.836
 282      -0.004     0.004     0.009       0.878
 283      -0.007     0.004     0.008       1.367
 284      -0.008     0.003     0.010       1.017
 285      -0.012     0.005     0.013       1.258
 286      -0.002     0.000     0.002       1.140
 287       0.003    -0.000    -0.004       0.836
 288       0.002    -0.000    -0.002       0.881
 289      -0.003    -0.000     0.003       0.906
 290      -0.002     0.002    -0.012      -0.344
 291      -0.006     0.003     0.007       1.285
 292      -0.007    -0.000     0.009       0.727
 293       0.016    -0.003     0.024      -0.773
 294      -0.001    -0.000     0.002       0.549
 295      -0.002    -0.001     0.004       0.388
 296       0.002     0.001    -0.003       0.262
 297       0.002     0.000    -0.005       0.329
 298      -0.005    -0.001    -0.019      -0.212
 299       0.006     0.003    -0.013       0.255
 300       0.009     0.002    -0.013       0.557
 301      -0.022     0.017     0.027       1.504
 302      -0.000     0.000    -0.006      -0.094
 303       0.005     0.002    -0.007       0.321
 304       0.003     0.001    -0.005       0.262
 305       0.004     0.004    -0.006       0.086
 306      -0.004     0.002    -0.020      -0.259
 307      -0.020    -0.017    -0.060      -0.043
 308      -0.016    -0.010    -0.059      -0.096
 309      -0.303    -0.256    -0.476      -0.099
 310       0.002    -0.001    -0.012       0.246
 311       0.007     0.007    -0.014       0.010
 312       0.003     0.001    -0.006       0.339
 313       0.005     0.004    -0.008       0.159
 314       0.010    -0.003    -0.012       1.066
 315       0.027    -0.001     0.048      -0.576
 316       0.034    -0.001     0.058      -0.595
 317       0.007     0.003    -0.009       0.485
 318       0.013     0.012    -0.014       0.030
 319       0.003     0.001    -0.005       0.262
 320       0.004     0.004    -0.006       0.086
 321      -0.004     0.002    -0.020      -0.259
 322      -0.020    -0.017    -0.060      -0.043
 323      -0.016    -0.010    -0.059      -0.096
 324      -0.303    -0.256    -0.476      -0.099
 325       0.002    -0.001    -0.012       0.246
 326       0.007     0.007    -0.014       0.010
 327       0.002     0.001    -0.003       0.262
 328       0.002     0.000    -0.005       0.329
 329      -0.005    -0.001    -0.019      -0.212
 330       0.006     0.003    -0.013       0.255
 331       0.009     0.002    -0.013       0.557
 332      -0.022     0.017     0.027       1.504
 333      -0.000     0.000    -0.006      -0.094
 334       0.005     0.002    -0.007       0.321
 335      -0.001     0.001    -0.004      -0.551
 336       0.003    -0.000    -0.004       0.942
 337       0.005    -0.003    -0.016       0.526
 338       0.011     0.004    -0.015       0.455
 339       0.003    -0.002    -0.007       0.697
 340       0.008     0.004    -0.009       0.511
 341       0.002     0.000    -0.002       0.605
 342       0.003     0.000    -0.003       0.896
 343       0.002     0.001    -0.006       0.038
 344      -0.005    -0.004    -0.018      -0.029
 345      -0.100    -0.087    -0.171      -0.074
 346      -0.035    -0.015    -0.086      -0.224
 347       0.005     0.002    -0.016       0.192
 348      -0.050    -0.044    -0.086      -0.071
 349       0.002     0.001    -0.005       0.210
 350       0.004     0.003    -0.005       0.210
 351       0.001     0.000    -0.008       0.117
 352       0.006     0.006    -0.012       0.037
 353       0.026    -0.011     0.041      -0.895
 354      -0.554    -0.540    -0.805      -0.018
 355      -0.004    -0.001    -0.034      -0.089
 356       0.048    -0.025     0.053      -1.374
 357       0.004     0.001    -0.006       0.496
 358       0.005     0.004    -0.009       0.128
 359       0.001     0.000    -0.008       0.117
 360       0.006     0.006    -0.012       0.037
 361       0.026    -0.011     0.041      -0.895
 362      -0.554    -0.540    -0.805      -0.018
 363      -0.004    -0.001    -0.034      -0.089
 364       0.048    -0.025     0.053      -1.374
 365       0.004     0.001    -0.006       0.496
 366       0.005     0.004    -0.009       0.128
 367       0.002     0.001    -0.006       0.038
 368      -0.005    -0.004    -0.018      -0.029
 369      -0.100    -0.087    -0.171      -0.074
 370      -0.035    -0.015    -0.086      -0.224
 371       0.005     0.002    -0.016       0.192
 372      -0.050    -0.044    -0.086      -0.071
 373       0.002     0.001    -0.005       0.210
 374       0.004     0.003    -0.005       0.210
 375      -0.001     0.001    -0.004      -0.551
 376       0.003    -0.000    -0.004       0.942
 377       0.005    -0.003    -0.016       0.526
 378       0.011     0.004    -0.015       0.455
 379       0.003    -0.002    -0.007       0.697
 380       0.008     0.004    -0.009       0.511
 381       0.002     0.000    -0.002       0.605
 382       0.003     0.000    -0.003       0.896
 383      -0.003    -0.002     0.004       0.095
 384      -0.001     0.001    -0.001      -1.372
 385       0.006     0.004    -0.028       0.076
 386      -0.006    -0.002     0.006       0.611
 387       0.020    -0.002     0.023      -0.915
 388      -0.003    -0.001     0.006       0.291
 389      -0.001     0.000     0.006       0.175
 390      -0.001     0.000     0.001       0.839
 391      -0.015    -0.010    -0.026      -0.196
 392       0.001     0.000    -0.002       0.375
 393      -0.068    -0.066    -0.155      -0.012
 394      -0.009     0.002    -0.017      -0.628
 395       0.014     0.011    -0.032       0.092
 396       0.004    -0.004    -0.007       1.187
 397       0.003     0.001    -0.006       0.432
 398       0.002     0.001    -0.002       0.474
 399      -0.008     0.007     0.009       1.743
 400       0.003    -0.001    -0.004       1.047
 401      -1.775    -1.748    -2.534      -0.010
 402       0.006     0.002    -0.018       0.248
 403      -0.316    -0.279    -0.493      -0.075
 404      -0.007    -0.002    -0.023      -0.189
 405       0.005     0.005    -0.011       0.082
 406       0.003    -0.001    -0.004       1.043
 407       0.010    -0.008     0.011      -1.634
 408       0.004    -0.001    -0.004       1.290
 409       0.173    -0.032    -0.191       1.074
 410       0.009     0.008    -0.016       0.039
 411       0.009     0.008    -0.017       0.051
 412       0.006     0.006    -0.013       0.019
 413      -0.004    -0.001     0.005       0.636
 414      -0.008     0.007     0.009       1.743
 415       0.003    -0.001    -0.004       1.047
 416      -1.775    -1.748    -2.534      -0.010
 417       0.006     0.002    -0.018       0.248
 418      -0.316    -0.279    -0.493      -0.075
 419      -0.007    -0.002    -0.023      -0.189
 420       0.005     0.005    -0.011       0.082
 421       0.003    -0.001    -0.004       1.043
 422      -0.015    -0.010    -0.026      -0.196
 423       0.001     0.000    -0.002       0.375
 424      -0.068    -0.066    -0.155      -0.012
 425      -0.009     0.002    -0.017      -0.628
 426       0.014     0.011    -0.032       0.092
 427       0.004    -0.004    -0.007       1.187
 428       0.003     0.001    -0.006       0.432
 429       0.002     0.001    -0.002       0.474
 430       0.003    -0.001    -0.016       0.279
 431       0.002    -0.001    -0.004       0.735
 432      -0.053    -0.050    -0.199      -0.015
 433      -0.005    -0.004     0.008       0.082
 434       0.005     0.001    -0.008       0.560
 435      -0.001    -0.001     0.002       0.398
 436      -0.004    -0.000     0.004       0.857
 437       0.001     0.001    -0.002       0.277
 438      -0.110    -0.103    -0.183      -0.040
 439       0.003    -0.002    -0.004       1.334
 440      -2.073    -2.058    -2.995      -0.005
 441      -0.020    -0.010    -0.034      -0.287
 442       0.007     0.005    -0.019       0.077
 443      -0.002    -0.000     0.004       0.415
 444       0.006    -0.003     0.007      -1.190
 445       0.002     0.001    -0.003       0.409
 446       0.026    -0.007     0.039      -0.852
 447       0.004    -0.001    -0.008       0.724
 448       0.012     0.007    -0.025       0.208
 449       0.023     0.020    -0.026       0.133
 450       0.004    -0.003    -0.008       0.892
 451       0.005     0.005    -0.009       0.008
 452       0.003     0.000    -0.005       0.671
 453       0.026    -0.007     0.039      -0.852
 454       0.004    -0.001    -0.008       0.724
 455       0.012     0.007    -0.025       0.208
 456       0.023     0.020    -0.026       0.133
 457       0.004    -0.003    -0.008       0.892
 458       0.005     0.005    -0.009       0.008
 459       0.003     0.000    -0.005       0.671
 460      -0.110    -0.103    -0.183      -0.040
 461       0.003    -0.002    -0.004       1.334
 462      -2.073    -2.058    -2.995      -0.005
 463      -0.020    -0.010    -0.034      -0.287
 464       0.007     0.005    -0.019       0.077
 465      -0.002    -0.000     0.004       0.415
 466       0.006    -0.003     0.007      -1.190
 467       0.002     0.001    -0.003       0.409
 468       0.003    -0.001    -0.016       0.279
 469       0.002    -0.001    -0.004       0.735
 470      -0.053    -0.050    -0.199      -0.015
 471      -0.005    -0.004     0.008       0.082
 472       0.005     0.001    -0.008       0.560
 473      -0.001    -0.001     0.002       0.398
 474      -0.004    -0.000     0.004       0.857
 475       0.001     0.001    -0.002       0.277
 476      -0.003     0.002    -0.011      -0.423
 477       0.002    -0.000    -0.003       0.938
 478       0.009     0.002    -0.028       0.246
 479      -0.007    -0.001     0.009       0.650
 480       0.005     0.001    -0.006       0.722
 481      -0.003    -0.000     0.004       0.760
 482       0.003    -0.000    -0.003       1.108
 483      -0.002     0.001     0.002       1.238
 484      -0.004    -0.000    -0.018      -0.188
 485       0.002     0.000    -0.005       0.287
 486      -0.072    -0.064    -0.157      -0.046
 487      -0.011    -0.001    -0.026      -0.396
 488       0.005     0.001    -0.015       0.309
 489       0.004     0.001    -0.007       0.452
 490       0.002     0.000    -0.005       0.447
 491       0.002     0.001    -0.003       0.242
 492      -0.006     0.001    -0.022      -0.294
 493       0.006     0.003    -0.007       0.441
 494      -1.711    -1.679    -2.454      -0.013
 495      -0.053    -0.046    -0.113      -0.064
 496      -0.053    -0.050    -0.106      -0.027
 497       0.010    -0.008     0.013      -1.389
 498       0.004     0.003    -0.007       0.073
 499       0.003     0.001    -0.005       0.400
 500       0.010    -0.005    -0.014       1.068
 501       0.007     0.003    -0.008       0.470
 502       0.163    -0.051    -0.224       0.955
 503       0.027     0.020    -0.037       0.184
 504       0.009     0.007    -0.042       0.063
 505       0.012    -0.012     0.014      -1.698
 506       0.005     0.003    -0.008       0.164
 507       0.004     0.001    -0.006       0.514
 508      -0.006     0.001    -0.022      -0.294
 509       0.006     0.003    -0.007       0.441
 510      -1.711    -1.679    -2.454      -0.013
 511      -0.053    -0.046    -0.113      -0.064
 512      -0.053    -0.050    -0.106      -0.027
 513       0.010    -0.008     0.013      -1.389
 514       0.004     0.003    -0.007       0.073
 515       0.003     0.001    -0.005       0.400
 516      -0.004    -0.000    -0.018      -0.188
 517       0.002     0.000    -0.005       0.287
 518      -0.072    -0.064    -0.157      -0.046
 519      -0.011    -0.001    -0.026      -0.396
 520       0.005     0.001    -0.015       0.309
 521       0.004     0.001    -0.007       0.452
 522       0.002     0.000    -0.005       0.447
 523       0.002     0.001    -0.003       0.242
 524       0.003    -0.001    -0.004       1.053
 525       0.002     0.000    -0.002       0.572
 526      -0.013    -0.009    -0.046      -0.078
 527      -0.006    -0.001     0.006       0.811
 528       0.011     0.004    -0.015       0.425
 529      -0.008    -0.000     0.008       0.929
 530       0.003    -0.001    -0.004       0.923
 531      -0.002     0.001     0.002       1.245
 532       0.003     0.001    -0.007       0.332
 533       0.003     0.001    -0.004       0.334
 534      -0.084    -0.081    -0.172      -0.018
 535      -0.013    -0.007    -0.029      -0.208
 536      -0.035    -0.021    -0.087      -0.160
 537       0.007     0.001    -0.022       0.300
 538      -0.001     0.000    -0.013      -0.074
 539       0.003     0.002    -0.005       0.306
 540       0.004     0.003    -0.009       0.054
 541       0.004     0.001    -0.006       0.535
 542      -0.055    -0.000    -0.095      -0.580
 543      -0.007    -0.006    -0.040      -0.025
 544      -0.584    -0.568    -0.832      -0.019
 545       0.049    -0.002     0.054      -0.941
 546       0.006     0.005    -0.014       0.076
 547       0.006     0.003    -0.007       0.555
 548       0.004     0.003    -0.009       0.054
 549       0.004     0.001    -0.006       0.535
 550      -0.055    -0.000    -0.095      -0.580
 551      -0.007    -0.006    -0.040      -0.025
 552      -0.584    -0.568    -0.832      -0.019
 553       0.049    -0.002     0.054      -0.941
 554       0.006     0.005    -0.014       0.076
 555       0.006     0.003    -0.007       0.555
 556       0.003     0.001    -0.007       0.332
 557       0.003     0.001    -0.004       0.334
 558      -0.084    -0.081    -0.172      -0.018
 559      -0.013    -0.007    -0.029      -0.208
 560      -0.035    -0.021    -0.087      -0.160
 561       0.007     0.001    -0.022       0.300
 562      -0.001     0.000    -0.013      -0.074
 563       0.003     0.002    -0.005       0.306
 564       0.003    -0.001    -0.004       1.053
 565       0.002     0.000    -0.002       0.572
 566      -0.013    -0.009    -0.046      -0.078
 567      -0.006    -0.001     0.006       0.811
 568       0.011     0.004    -0.015       0.425
 569      -0.008    -0.000     0.008       0.929
 570       0.003    -0.001    -0.004       0.923
 571      -0.002     0.001     0.002       1.245
 572       0.653     0.564     0.771      -0.115
 573      -0.241    -0.037     0.402       0.507
 574     -14.788   -14.742   -25.881      -0.002
 575     -14.788   -14.742   -25.881      -0.002
 576       0.647     0.555     0.758      -0.122
 ---------------------------------------------------------------------



--------------------------------------------------------------------------------------------------------


     LOOP+:  cpu time  889.8115: real time  892.4809
    4ORBIT:  cpu time    0.0000: real time    0.0000

 total amount of memory used by VASP MPI-rank0   238703. kBytes
=======================================================================

   base      :      30000. kBytes
   nonlr-proj:       9226. kBytes
   fftplans  :      15014. kBytes
   grid      :      46644. kBytes
   one-center:        294. kBytes
   wavefun   :     137525. kBytes
 
  
  
 General timing and accounting informations for this job:
 ========================================================
  
                  Total CPU time used (sec):      915.364
                            User time (sec):      914.460
                          System time (sec):        0.905
                         Elapsed time (sec):      918.943
  
                   Maximum memory used (kb):      437672.
                   Average memory used (kb):          N/A
  
                          Minor page faults:       151437
                          Major page faults:           41
                 Voluntary context switches:        10014
