 vasp.6.2.0 18Jan21 (build Apr 30 2021 19:00:08) gamma-only                     
  
 executed on             LinuxIFC date 2022.12.30  13:47:12
 running on   24 total cores
 distrk:  each k-point on   24 cores,    1 groups
 distr:  one band on NCORE=   6 cores,    4 groups


--------------------------------------------------------------------------------------------------------


 INCAR:
   SYSTEM = Diamond
   PREC = Normal
   ISTART = 0
   ICHARG = 11
   ISPIN = 2
   MAGMOM = 572*0.0 1*2.0 2*2.0 1*3
   NPAR = 4
   NELECT = 2303
   LHYPERFINE = T
   LEFG = T
   ENCUT = 700
   NELM = 1000
   NELMIN = 4
   EDIFF = 1E-06
   LREAL = Auto
   ALGO = Normal
   EDIFFG = -1E-02
   NSW = 0
   IBRION = 2
   ISIF = 2
   ISYM = 2
   POTIM = 0.5
   ISMEAR = 0
   SIGMA = 0.05
   NEDOS = 1000
   LWAVE = F
   LCHARG = F
   LVHAR = F
   LELF = F

 POTCAR:    PAW_PBE C 08Apr2002                   
 POTCAR:    PAW_PBE H 15Jun2001                   
 POTCAR:    PAW_PBE C 08Apr2002                   
 POTCAR:    PAW_PBE N 08Apr2002                   
 POTCAR:    PAW_PBE C 08Apr2002                   
   VRHFIN =C: s2p2                                                                                  
   LEXCH  = PE                                                                                      
   EATOM  =   147.1560 eV,   10.8157 Ry                                                             
                                                                                                    
   TITEL  = PAW_PBE C 08Apr2002                                                                     
   LULTRA =        F    use ultrasoft PP ?                                                          
   IUNSCR =        1    unscreen: 0-lin 1-nonlin 2-no                                               
   RPACOR =    1.200    partial core radius                                                         
   POMASS =   12.011; ZVAL   =    4.000    mass and valenz                                          
   RCORE  =    1.500    outmost cutoff radius                                                       
   RWIGS  =    1.630; RWIGS  =    0.863    wigner-seitz radius (au A)                               
   ENMAX  =  400.000; ENMIN  =  300.000 eV                                                          
   ICORE  =        2    local potential                                                             
   LCOR   =        T    correct aug charges                                                         
   LPAW   =        T    paw PP                                                                      
   EAUG   =  644.873                                                                                
   DEXC   =    0.000                                                                                
   RMAX   =    1.529    core radius for proj-oper                                                   
   RAUG   =    1.300    factor for augmentation sphere                                              
   RDEP   =    1.501    radius for radial grids                                                     
   RDEPT  =    1.300    core radius for aug-charge                                                  
                                                                                                    
   Atomic configuration                                                                             
    4 entries                                                                                       
     n  l   j            E        occ.                                                              
     1  0  0.50      -273.3789   2.0000                                                             
     2  0  0.50       -13.7508   2.0000                                                             
     2  1  0.50        -5.2854   2.0000                                                             
     3  2  1.50        -5.4423   0.0000                                                             
   Description                                                                                      
     l       E           TYP  RCUT    TYP  RCUT                                                     
     0    -13.7508458     23  1.200                                                                 
     0     -8.2022199     23  1.200                                                                 
     1     -5.2854383     23  1.500                                                                 
     1     34.0145650     23  1.500                                                                 
     2     -5.4423304      7  1.500                                                                 
  local pseudopotential read in
  partial core-charges read in
  partial kinetic energy density read in
  atomic valenz-charges read in
  non local Contribution for L=           0  read in
    real space projection operators read in
  non local Contribution for L=           0  read in
    real space projection operators read in
  non local Contribution for L=           1  read in
    real space projection operators read in
  non local Contribution for L=           1  read in
    real space projection operators read in
    PAW grid and wavefunctions read in
 
   number of l-projection  operators is LMAX  =           4
   number of lm-projection operators is LMMAX =           8
 
 POTCAR:    PAW_PBE H 15Jun2001                   
   VRHFIN =H: ultrasoft test                                                                        
   LEXCH  = PE                                                                                      
   EATOM  =    12.4884 eV,    0.9179 Ry                                                             
                                                                                                    
   TITEL  = PAW_PBE H 15Jun2001                                                                     
   LULTRA =        F    use ultrasoft PP ?                                                          
   IUNSCR =        0    unscreen: 0-lin 1-nonlin 2-no                                               
   RPACOR =    0.000    partial core radius                                                         
   POMASS =    1.000; ZVAL   =    1.000    mass and valenz                                          
   RCORE  =    1.100    outmost cutoff radius                                                       
   RWIGS  =    0.700; RWIGS  =    0.370    wigner-seitz radius (au A)                               
   ENMAX  =  250.000; ENMIN  =  200.000 eV                                                          
   RCLOC  =    0.701    cutoff for local pot                                                        
   LCOR   =        T    correct aug charges                                                         
   LPAW   =        T    paw PP                                                                      
   EAUG   =  400.000                                                                                
   RMAX   =    1.123    core radius for proj-oper                                                   
   RAUG   =    1.200    factor for augmentation sphere                                              
   RDEP   =    1.112    radius for radial grids                                                     
   RDEPT  =    0.926    core radius for aug-charge                                                  
                                                                                                    
   Atomic configuration                                                                             
    2 entries                                                                                       
     n  l   j            E        occ.                                                              
     1  0  0.50        -6.4927   1.0000                                                             
     2  1  0.50        -3.4015   0.0000                                                             
   Description                                                                                      
     l       E           TYP  RCUT    TYP  RCUT                                                     
     0     -6.4927494     23  1.100                                                                 
     0      6.8029130     23  1.100                                                                 
     1     -4.0817478     23  1.100                                                                 
  local pseudopotential read in
  atomic valenz-charges read in
  non local Contribution for L=           0  read in
    real space projection operators read in
  non local Contribution for L=           0  read in
    real space projection operators read in
  non local Contribution for L=           1  read in
    real space projection operators read in
    PAW grid and wavefunctions read in
 
   number of l-projection  operators is LMAX  =           3
   number of lm-projection operators is LMMAX =           5
 
 POTCAR:    PAW_PBE C 08Apr2002                   
   VRHFIN =C: s2p2                                                                                  
   LEXCH  = PE                                                                                      
   EATOM  =   147.1560 eV,   10.8157 Ry                                                             
                                                                                                    
   TITEL  = PAW_PBE C 08Apr2002                                                                     
   LULTRA =        F    use ultrasoft PP ?                                                          
   IUNSCR =        1    unscreen: 0-lin 1-nonlin 2-no                                               
   RPACOR =    1.200    partial core radius                                                         
   POMASS =   12.011; ZVAL   =    4.000    mass and valenz                                          
   RCORE  =    1.500    outmost cutoff radius                                                       
   RWIGS  =    1.630; RWIGS  =    0.863    wigner-seitz radius (au A)                               
   ENMAX  =  400.000; ENMIN  =  300.000 eV                                                          
   ICORE  =        2    local potential                                                             
   LCOR   =        T    correct aug charges                                                         
   LPAW   =        T    paw PP                                                                      
   EAUG   =  644.873                                                                                
   DEXC   =    0.000                                                                                
   RMAX   =    1.529    core radius for proj-oper                                                   
   RAUG   =    1.300    factor for augmentation sphere                                              
   RDEP   =    1.501    radius for radial grids                                                     
   RDEPT  =    1.300    core radius for aug-charge                                                  
                                                                                                    
   Atomic configuration                                                                             
    4 entries                                                                                       
     n  l   j            E        occ.                                                              
     1  0  0.50      -273.3789   2.0000                                                             
     2  0  0.50       -13.7508   2.0000                                                             
     2  1  0.50        -5.2854   2.0000                                                             
     3  2  1.50        -5.4423   0.0000                                                             
   Description                                                                                      
     l       E           TYP  RCUT    TYP  RCUT                                                     
     0    -13.7508458     23  1.200                                                                 
     0     -8.2022199     23  1.200                                                                 
     1     -5.2854383     23  1.500                                                                 
     1     34.0145650     23  1.500                                                                 
     2     -5.4423304      7  1.500                                                                 
  local pseudopotential read in
  partial core-charges read in
  partial kinetic energy density read in
  atomic valenz-charges read in
  non local Contribution for L=           0  read in
    real space projection operators read in
  non local Contribution for L=           0  read in
    real space projection operators read in
  non local Contribution for L=           1  read in
    real space projection operators read in
  non local Contribution for L=           1  read in
    real space projection operators read in
    PAW grid and wavefunctions read in
 
   number of l-projection  operators is LMAX  =           4
   number of lm-projection operators is LMMAX =           8
 
 POTCAR:    PAW_PBE N 08Apr2002                   
   VRHFIN =N: s2p3                                                                                  
   LEXCH  = PE                                                                                      
   EATOM  =   264.5486 eV,   19.4438 Ry                                                             
                                                                                                    
   TITEL  = PAW_PBE N 08Apr2002                                                                     
   LULTRA =        F    use ultrasoft PP ?                                                          
   IUNSCR =        1    unscreen: 0-lin 1-nonlin 2-no                                               
   RPACOR =    1.200    partial core radius                                                         
   POMASS =   14.001; ZVAL   =    5.000    mass and valenz                                          
   RCORE  =    1.500    outmost cutoff radius                                                       
   RWIGS  =    1.400; RWIGS  =    0.741    wigner-seitz radius (au A)                               
   ENMAX  =  400.000; ENMIN  =  300.000 eV                                                          
   ICORE  =        2    local potential                                                             
   LCOR   =        T    correct aug charges                                                         
   LPAW   =        T    paw PP                                                                      
   EAUG   =  627.112                                                                                
   DEXC   =    0.000                                                                                
   RMAX   =    1.529    core radius for proj-oper                                                   
   RAUG   =    1.300    factor for augmentation sphere                                              
   RDEP   =    1.514    radius for radial grids                                                     
   RDEPT  =    1.338    core radius for aug-charge                                                  
                                                                                                    
   Atomic configuration                                                                             
    4 entries                                                                                       
     n  l   j            E        occ.                                                              
     1  0  0.50      -384.7179   2.0000                                                             
     2  0  0.50       -18.5828   2.0000                                                             
     2  1  0.50        -7.0898   3.0000                                                             
     3  2  1.50        -6.8029   0.0000                                                             
   Description                                                                                      
     l       E           TYP  RCUT    TYP  RCUT                                                     
     0    -18.5828119     23  1.200                                                                 
     0    -13.5018863     23  1.200                                                                 
     1     -7.0897853     23  1.500                                                                 
     1      9.5240782     23  1.500                                                                 
     2     -6.8029130      7  1.500                                                                 
  local pseudopotential read in
  partial core-charges read in
  partial kinetic energy density read in
  atomic valenz-charges read in
  non local Contribution for L=           0  read in
    real space projection operators read in
  non local Contribution for L=           0  read in
    real space projection operators read in
  non local Contribution for L=           1  read in
    real space projection operators read in
  non local Contribution for L=           1  read in
    real space projection operators read in
    PAW grid and wavefunctions read in
 
   number of l-projection  operators is LMAX  =           4
   number of lm-projection operators is LMMAX =           8
 
 Optimization of the real space projectors (new method)

 maximal supplied QI-value         = 25.13
 optimisation between [QCUT,QGAM] = [ 13.32, 26.89] = [ 49.69,202.52] Ry 
 Optimized for a Real-space Cutoff    1.01 Angstroem

   l    n(q)    QCUT    max X(q) W(low)/X(q) W(high)/X(q)  e(spline) 
   0      8    13.321   115.676    0.29E-03    0.42E-03    0.11E-06
   0      8    13.321    87.132    0.29E-03    0.42E-03    0.11E-06
   1      8    13.321     4.429    0.39E-03    0.33E-03    0.98E-07
   1      8    13.321     2.733    0.30E-03    0.26E-03    0.97E-07
 Optimization of the real space projectors (new method)

 maximal supplied QI-value         = 34.20
 optimisation between [QCUT,QGAM] = [ 13.34, 27.02] = [ 49.83,204.46] Ry 
 Optimized for a Real-space Cutoff    0.93 Angstroem

   l    n(q)    QCUT    max X(q) W(low)/X(q) W(high)/X(q)  e(spline) 
   0      7    13.340    19.460    0.47E-03    0.72E-04    0.17E-06
   0      7    13.340    12.209    0.45E-03    0.63E-04    0.16E-06
   1      7    13.340     4.655    0.21E-03    0.61E-03    0.12E-06
 Optimization of the real space projectors (new method)

 maximal supplied QI-value         = 25.13
 optimisation between [QCUT,QGAM] = [ 13.32, 26.89] = [ 49.69,202.52] Ry 
 Optimized for a Real-space Cutoff    1.01 Angstroem

   l    n(q)    QCUT    max X(q) W(low)/X(q) W(high)/X(q)  e(spline) 
   0      8    13.321   115.676    0.29E-03    0.42E-03    0.11E-06
   0      8    13.321    87.132    0.29E-03    0.42E-03    0.11E-06
   1      8    13.321     4.429    0.39E-03    0.33E-03    0.98E-07
   1      8    13.321     2.733    0.30E-03    0.26E-03    0.97E-07
 Optimization of the real space projectors (new method)

 maximal supplied QI-value         = 25.13
 optimisation between [QCUT,QGAM] = [ 13.32, 26.89] = [ 49.69,202.52] Ry 
 Optimized for a Real-space Cutoff    1.01 Angstroem

   l    n(q)    QCUT    max X(q) W(low)/X(q) W(high)/X(q)  e(spline) 
   0      8    13.321    79.467    0.28E-03    0.38E-03    0.11E-06
   0      8    13.321    66.151    0.27E-03    0.38E-03    0.11E-06
   1      8    13.321    23.070    0.40E-03    0.78E-03    0.29E-06
   1      8    13.321    16.668    0.40E-03    0.79E-03    0.30E-06
  PAW_PBE C 08Apr2002                   :
 energy of atom  1       EATOM= -147.1560
 kinetic energy error for atom=    0.0032 (will be added to EATOM!!)
  PAW_PBE H 15Jun2001                   :
 energy of atom  2       EATOM=  -12.4884
 kinetic energy error for atom=    0.0002 (will be added to EATOM!!)
  PAW_PBE C 08Apr2002                   :
 energy of atom  3       EATOM= -147.1560
 kinetic energy error for atom=    0.0032 (will be added to EATOM!!)
  PAW_PBE N 08Apr2002                   :
 energy of atom  4       EATOM= -264.5486
 kinetic energy error for atom=    0.0061 (will be added to EATOM!!)
 
 
 POSCAR: Autosave
  positions in direct lattice
  velocities in cartesian coordinates
 exchange correlation table for  LEXCH =        8
   RHO(1)=    0.500       N(1)  =     2000
   RHO(2)=  100.500       N(2)  =     4000
 


--------------------------------------------------------------------------------------------------------


 ion  position               nearest neighbor table
   1  1.000  0.000  0.000- 285 1.55 381 1.55 435 1.55 475 1.55
   2  1.000  0.000  0.500- 286 1.55 434 1.55 380 1.55 474 1.55
   3  0.000  0.250  0.000- 287 1.55 429 1.55 383 1.55 469 1.55
   4  0.000  0.250  0.500- 288 1.55 382 1.55 428 1.55 468 1.55
   5  1.000  0.500  0.000- 289 1.55 471 1.55 431 1.55 385 1.55
   6  1.000  0.500  0.500- 384 1.55 290 1.55 430 1.55 470 1.55
   7  1.000  0.750  0.000- 433 1.55 291 1.55 473 1.55 387 1.55
   8  1.000  0.750  0.500- 292 1.55 432 1.55 386 1.55 472 1.55
   9  0.167  0.000  0.000- 293 1.55 389 1.55 435 1.55 443 1.55
  10  0.167  0.000  0.500- 294 1.55 434 1.55 442 1.55 388 1.55
  11  0.167  0.250  1.000- 429 1.55 295 1.55 437 1.55 391 1.55
  12  0.167  0.250  0.500- 296 1.55 436 1.55 390 1.55 428 1.55
  13  0.167  0.500  0.000- 297 1.55 431 1.55 393 1.55 439 1.55
  14  0.167  0.500  0.500- 392 1.55 298 1.55 430 1.55 438 1.55
  15  0.167  0.750  0.000- 441 1.55 299 1.55 433 1.55 395 1.55
  16  0.167  0.750  0.500- 394 1.55 300 1.55 432 1.55 440 1.55
  17  0.333  0.000  0.000- 301 1.55 397 1.55 451 1.55 443 1.55
  18  0.333  0.000  0.500- 302 1.55 442 1.55 450 1.55 396 1.55
  19  0.333  0.250  1.000- 303 1.55 437 1.55 445 1.55 399 1.55
  20  0.334  0.250  0.500- 304 1.55 444 1.55 436 1.55 398 1.55
  21  0.333  0.500  1.000- 305 1.54 439 1.55 401 1.55 447 1.55
  22  0.334  0.501  0.500- 400 1.54 306 1.55 438 1.55 446 1.56
  23  0.333  0.750  1.000- 307 1.55 403 1.55 441 1.55 449 1.55
  24  0.333  0.750  0.500- 440 1.55 308 1.55 402 1.55 448 1.55
  25  0.500  1.000  0.000- 405 1.55 309 1.55 451 1.55 459 1.55
  26  0.500  1.000  0.500- 310 1.55 450 1.55 458 1.55 404 1.55
  27  0.500  0.250  0.000- 407 1.54 311 1.54 445 1.55 453 1.55
  28  0.500  0.250  0.500- 312 1.55 444 1.55 452 1.55 406 1.55
  29  0.500  0.500  1.000- 313 1.54 409 1.55 447 1.55 455 1.55
  30  0.500  0.750  1.000- 314 1.54 411 1.55 449 1.55 457 1.55
  31  0.500  0.750  0.500- 456 1.54 448 1.55 315 1.55 410 1.55
  32  0.667  1.000  0.000- 413 1.55 316 1.55 467 1.55 459 1.55
  33  0.667  1.000  0.500- 317 1.55 466 1.55 458 1.55 412 1.55
  34  0.667  0.250  0.000- 318 1.55 415 1.55 461 1.55 453 1.55
  35  0.666  0.250  0.500- 452 1.55 319 1.55 460 1.55 414 1.55
  36  0.667  0.500  0.000- 320 1.54 463 1.55 417 1.55 455 1.55
  37  0.665  0.500  0.501- 416 1.54 321 1.55 462 1.56 454 1.56
  38  0.667  0.750  0.000- 322 1.55 419 1.55 465 1.55 457 1.55
  39  0.666  0.750  0.500- 464 1.55 323 1.55 418 1.55 456 1.55
  40  0.833  1.000  0.000- 475 1.55 324 1.55 421 1.55 467 1.55
  41  0.833  1.000  0.500- 325 1.55 474 1.55 466 1.55 420 1.55
  42  0.833  0.250  0.000- 326 1.55 469 1.55 423 1.55 461 1.55
  43  0.833  0.250  0.500- 327 1.55 460 1.55 422 1.55 468 1.55
  44  0.833  0.500  0.000- 328 1.55 471 1.55 463 1.55 425 1.55
  45  0.833  0.500  0.500- 424 1.55 329 1.55 470 1.55 462 1.55
  46  0.833  0.750  0.000- 465 1.55 473 1.55 330 1.55 427 1.55
  47  0.833  0.750  0.500- 331 1.55 472 1.55 426 1.55 464 1.55
  48  0.083  0.125  0.000- 429 1.55 332 1.55 381 1.55 389 1.55
  49  0.083  0.125  0.500- 333 1.55 428 1.55 388 1.55 380 1.55
  50  0.083  0.375  1.000- 383 1.55 334 1.55 431 1.55 391 1.55
  51  0.083  0.375  0.500- 430 1.55 335 1.55 390 1.55 382 1.55
  52  0.083  0.625  0.000- 393 1.55 385 1.55 336 1.55 433 1.55
  53  0.083  0.625  0.500- 337 1.55 384 1.55 432 1.55 392 1.55
  54  0.083  0.875  0.000- 395 1.55 338 1.55 435 1.55 387 1.55
  55  0.083  0.875  0.500- 339 1.55 434 1.55 394 1.55 386 1.55
  56  0.250  0.125  0.000- 340 1.55 389 1.55 437 1.55 397 1.55
  57  0.250  0.125  0.500- 341 1.55 396 1.55 388 1.55 436 1.55
  58  0.250  0.375  1.000- 342 1.54 391 1.55 439 1.55 399 1.55
  59  0.250  0.375  0.500- 398 1.54 438 1.54 343 1.55 390 1.55
  60  0.250  0.625  0.000- 401 1.54 344 1.54 393 1.55 441 1.55
  61  0.250  0.625  0.500- 440 1.55 392 1.55 345 1.55 400 1.55
  62  0.250  0.875  0.000- 346 1.55 443 1.55 403 1.55 395 1.55
  63  0.250  0.875  0.500- 347 1.55 394 1.55 442 1.55 402 1.55
  64  0.417  0.125  0.000- 445 1.55 348 1.55 397 1.55 405 1.55
  65  0.417  0.125  0.500- 349 1.55 396 1.55 404 1.55 444 1.55
  66  0.417  0.375  1.000- 350 1.54 399 1.55 407 1.55 447 1.55
  67  0.418  0.376  0.500- 406 1.54 351 1.55 446 1.56 398 1.56
  68  0.417  0.625  1.000- 352 1.54 449 1.55 401 1.55 409 1.55
  69  0.417  0.624  0.500- 400 1.54 353 1.55 448 1.55 408 1.56
  70  0.417  0.875  1.000- 451 1.55 354 1.55 403 1.55 411 1.55
  71  0.417  0.875  0.500- 355 1.55 402 1.55 410 1.55 450 1.55
  72  0.583  0.125  0.000- 453 1.55 356 1.55 405 1.55 413 1.55
  73  0.583  0.125  0.500- 357 1.55 404 1.55 412 1.55 452 1.55
  74  0.583  0.375  0.000- 358 1.54 415 1.55 407 1.55 455 1.55
  75  0.582  0.376  0.501- 406 1.54 359 1.55 414 1.56 454 1.56
  76  0.583  0.625  1.000- 360 1.54 457 1.55 417 1.55 409 1.55
  77  0.583  0.623  0.500- 416 1.54 361 1.55 408 1.56 456 1.56
  78  0.583  0.875  1.000- 459 1.55 362 1.55 419 1.55 411 1.55
  79  0.583  0.875  0.500- 363 1.55 418 1.55 410 1.55 458 1.55
  80  0.750  0.125  0.000- 461 1.55 364 1.55 421 1.55 413 1.55
  81  0.750  0.125  0.500- 365 1.55 412 1.55 420 1.55 460 1.55
  82  0.750  0.375  1.000- 366 1.54 423 1.55 463 1.55 415 1.55
  83  0.750  0.375  0.500- 462 1.54 414 1.54 367 1.55 422 1.55
  84  0.750  0.625  0.000- 417 1.54 368 1.54 425 1.55 465 1.55
  85  0.750  0.625  0.500- 424 1.55 369 1.55 464 1.55 416 1.55
  86  0.750  0.875  0.000- 467 1.55 427 1.55 370 1.55 419 1.55
  87  0.750  0.875  0.500- 426 1.55 371 1.55 466 1.55 418 1.55
  88  0.917  0.125  0.000- 469 1.55 381 1.55 372 1.55 421 1.55
  89  0.917  0.125  0.500- 373 1.55 380 1.55 468 1.55 420 1.55
  90  0.917  0.375  0.000- 383 1.55 374 1.55 423 1.55 471 1.55
  91  0.917  0.375  0.500- 470 1.55 375 1.55 422 1.55 382 1.55
  92  0.917  0.625  0.000- 425 1.55 385 1.55 376 1.55 473 1.55
  93  0.917  0.625  0.500- 377 1.55 384 1.55 472 1.55 424 1.55
  94  0.917  0.875  0.000- 387 1.55 378 1.55 475 1.55 427 1.55
  95  0.917  0.875  0.500- 379 1.55 386 1.55 474 1.55 426 1.55
  96  0.000  0.083  0.333- 380 1.55 476 1.55 524 1.55 564 1.55
  97  0.000  0.083  0.833- 477 1.55 525 1.55 381 1.55 565 1.55
  98  0.000  0.333  0.333- 382 1.55 478 1.55 526 1.55 566 1.55
  99  0.000  0.333  0.833- 383 1.55 527 1.55 567 1.55 479 1.55
 100  1.000  0.583  0.333- 384 1.55 568 1.55 528 1.55 480 1.55
 101  1.000  0.583  0.833- 529 1.55 569 1.55 385 1.55 481 1.55
 102  1.000  0.833  0.333- 386 1.55 530 1.55 482 1.55 570 1.55
 103  1.000  0.833  0.833- 531 1.55 387 1.55 483 1.55 571 1.55
 104  0.167  0.083  0.333- 388 1.55 484 1.55 532 1.55 524 1.55
 105  0.167  0.083  0.833- 389 1.55 533 1.55 485 1.55 525 1.55
 106  0.167  0.333  0.333- 390 1.55 486 1.55 534 1.55 526 1.55
 107  0.167  0.333  0.833- 391 1.55 527 1.55 487 1.55 535 1.55
 108  0.167  0.583  0.333- 528 1.55 392 1.55 488 1.55 536 1.55
 109  0.166  0.583  0.833- 537 1.54 529 1.55 393 1.55 489 1.55
 110  0.167  0.833  0.333- 394 1.55 490 1.55 538 1.55 530 1.55
 111  0.167  0.833  0.833- 539 1.55 491 1.55 395 1.55 531 1.55
 112  0.333  0.083  0.333- 396 1.55 540 1.55 532 1.55 492 1.55
 113  0.333  0.083  0.833- 493 1.55 533 1.55 397 1.55 541 1.55
 114  0.333  0.334  0.333- 494 1.55 542 1.55 534 1.55 398 1.55
 115  0.333  0.333  0.833- 399 1.55 535 1.55 543 1.55 495 1.55
 116  0.333  0.583  0.333- 496 1.55 536 1.55 544 1.55 400 1.55
 117  0.333  0.584  0.834- 401 1.54 545 1.54 537 1.55 497 1.55
 118  0.333  0.833  0.333- 402 1.55 546 1.55 498 1.55 538 1.55
 119  0.333  0.833  0.833- 499 1.55 403 1.55 539 1.55 547 1.55
 120  0.500  0.083  0.333- 404 1.55 500 1.55 540 1.55 548 1.55
 121  0.500  0.083  0.833- 405 1.55 501 1.55 541 1.55 549 1.55
 122  0.500  0.333  0.333- 542 1.55 550 1.55 502 1.55 406 1.55
 123  0.500  0.333  0.835- 407 1.54 543 1.55 551 1.55 503 1.55
 124  0.500  0.584  0.332- 504 1.54 408 1.54 544 1.55 552 1.55
 125  0.500  0.583  0.833- 505 1.54 409 1.55 545 1.55 553 1.56
 126  0.500  0.833  0.333- 410 1.55 546 1.55 554 1.55 506 1.55
 127  0.500  0.833  0.833- 411 1.55 507 1.55 547 1.55 555 1.55
 128  0.667  0.083  0.333- 412 1.55 548 1.55 556 1.55 508 1.55
 129  0.667  0.083  0.833- 509 1.55 557 1.55 413 1.55 549 1.55
 130  0.667  0.333  0.333- 550 1.55 510 1.55 558 1.55 414 1.55
 131  0.667  0.333  0.833- 415 1.55 559 1.55 551 1.55 511 1.55
 132  0.667  0.583  0.333- 512 1.55 560 1.55 552 1.55 416 1.55
 133  0.667  0.583  0.835- 417 1.54 513 1.55 561 1.55 553 1.55
 134  0.667  0.833  0.333- 418 1.55 554 1.55 562 1.55 514 1.55
 135  0.667  0.833  0.833- 515 1.55 563 1.55 419 1.55 555 1.55
 136  0.833  0.083  0.333- 420 1.55 564 1.55 516 1.55 556 1.55
 137  0.833  0.083  0.833- 565 1.55 517 1.55 421 1.55 557 1.55
 138  0.833  0.333  0.333- 422 1.55 518 1.55 558 1.55 566 1.55
 139  0.833  0.333  0.833- 567 1.55 423 1.55 519 1.55 559 1.55
 140  0.833  0.583  0.333- 424 1.55 560 1.55 568 1.55 520 1.55
 141  0.833  0.583  0.833- 561 1.55 569 1.55 425 1.55 521 1.55
 142  0.833  0.833  0.333- 426 1.55 570 1.55 562 1.55 522 1.55
 143  0.833  0.833  0.833- 571 1.55 523 1.55 427 1.55 563 1.55
 144  0.083  0.208  0.333- 428 1.55 526 1.55 484 1.55 476 1.55
 145  0.083  0.208  0.833- 485 1.55 429 1.55 527 1.55 477 1.55
 146  0.083  0.458  0.333- 430 1.55 486 1.55 528 1.55 478 1.55
 147  0.083  0.458  0.833- 479 1.55 431 1.55 529 1.55 487 1.55
 148  0.083  0.708  0.333- 432 1.55 488 1.55 480 1.55 530 1.55
 149  0.083  0.708  0.833- 489 1.55 433 1.55 531 1.55 481 1.55
 150  0.083  0.958  0.333- 434 1.55 490 1.55 524 1.55 482 1.55
 151  0.083  0.958  0.833- 491 1.55 525 1.55 435 1.55 483 1.55
 152  0.250  0.208  0.333- 436 1.55 534 1.55 492 1.55 484 1.55
 153  0.250  0.208  0.833- 437 1.55 485 1.55 493 1.55 535 1.55
 154  0.250  0.458  0.333- 536 1.55 486 1.55 494 1.55 438 1.55
 155  0.250  0.458  0.833- 439 1.55 487 1.55 537 1.55 495 1.55
 156  0.250  0.708  0.333- 440 1.55 538 1.55 488 1.55 496 1.55
 157  0.250  0.709  0.833- 497 1.54 441 1.55 539 1.55 489 1.55
 158  0.250  0.958  0.333- 442 1.55 498 1.55 490 1.55 532 1.55
 159  0.250  0.958  0.833- 443 1.55 533 1.55 491 1.55 499 1.55
 160  0.417  0.208  0.333- 444 1.55 492 1.55 542 1.55 500 1.55
 161  0.417  0.208  0.833- 493 1.55 445 1.55 543 1.55 501 1.55
 162  0.416  0.458  0.332- 494 1.54 446 1.54 544 1.55 502 1.55
 163  0.417  0.459  0.833- 495 1.54 447 1.55 545 1.55 503 1.56
 164  0.417  0.708  0.333- 546 1.55 496 1.55 504 1.55 448 1.55
 165  0.417  0.708  0.833- 449 1.55 547 1.55 497 1.55 505 1.55
 166  0.417  0.958  0.333- 450 1.55 498 1.55 540 1.55 506 1.55
 167  0.417  0.958  0.833- 451 1.55 541 1.55 499 1.55 507 1.55
 168  0.583  0.208  0.333- 452 1.55 508 1.55 550 1.55 500 1.55
 169  0.583  0.208  0.833- 551 1.55 453 1.55 509 1.55 501 1.55
 170  0.584  0.458  0.332- 510 1.54 454 1.54 552 1.55 502 1.55
 171  0.583  0.458  0.834- 455 1.54 511 1.54 553 1.55 503 1.55
 172  0.583  0.708  0.333- 512 1.55 504 1.55 554 1.55 456 1.55
 173  0.583  0.708  0.833- 457 1.55 555 1.55 513 1.55 505 1.55
 174  0.583  0.958  0.333- 458 1.55 514 1.55 506 1.55 548 1.55
 175  0.583  0.958  0.833- 549 1.55 515 1.55 459 1.55 507 1.55
 176  0.750  0.208  0.333- 460 1.55 558 1.55 508 1.55 516 1.55
 177  0.750  0.208  0.833- 517 1.55 461 1.55 559 1.55 509 1.55
 178  0.750  0.458  0.333- 510 1.55 560 1.55 518 1.55 462 1.55
 179  0.750  0.458  0.833- 463 1.55 519 1.55 561 1.55 511 1.55
 180  0.750  0.708  0.333- 464 1.55 520 1.55 512 1.55 562 1.55
 181  0.750  0.708  0.833- 521 1.55 563 1.55 465 1.55 513 1.55
 182  0.750  0.958  0.333- 466 1.55 522 1.55 514 1.55 556 1.55
 183  0.750  0.958  0.833- 557 1.55 523 1.55 467 1.55 515 1.55
 184  0.917  0.208  0.333- 468 1.55 566 1.55 516 1.55 476 1.55
 185  0.917  0.208  0.833- 477 1.55 567 1.55 469 1.55 517 1.55
 186  0.917  0.458  0.333- 470 1.55 518 1.55 568 1.55 478 1.55
 187  0.917  0.458  0.833- 519 1.55 471 1.55 479 1.55 569 1.55
 188  0.917  0.708  0.333- 472 1.55 520 1.55 480 1.55 570 1.55
 189  0.917  0.708  0.833- 481 1.55 473 1.55 571 1.55 521 1.55
 190  0.917  0.958  0.333- 474 1.55 482 1.55 564 1.55 522 1.55
 191  0.917  0.958  0.833- 483 1.55 565 1.55 475 1.55 523 1.55
 192  0.000  0.167  0.167- 476 1.55 287 1.55 332 1.55 372 1.55
 193  0.000  0.167  0.667- 333 1.55 288 1.55 477 1.55 373 1.55
 194  1.000  0.417  0.167- 374 1.55 478 1.55 334 1.55 289 1.55
 195  0.000  0.417  0.667- 479 1.55 375 1.55 335 1.55 290 1.55
 196  1.000  0.667  0.167- 336 1.55 376 1.55 480 1.55 291 1.55
 197  1.000  0.667  0.667- 337 1.54 377 1.55 292 1.55 481 1.55
 198  1.000  0.917  0.167- 482 1.55 338 1.55 285 1.55 378 1.55
 199  1.000  0.917  0.667- 339 1.55 286 1.55 483 1.55 379 1.55
 200  0.167  0.167  0.167- 484 1.55 295 1.55 340 1.55 332 1.55
 201  0.167  0.167  0.667- 485 1.55 341 1.55 333 1.55 296 1.55
 202  0.167  0.417  0.167- 334 1.55 297 1.55 486 1.55 342 1.55
 203  0.167  0.417  0.667- 487 1.55 335 1.55 298 1.55 343 1.55
 204  0.167  0.667  0.167- 488 1.55 344 1.55 336 1.55 299 1.55
 205  0.166  0.667  0.667- 345 1.54 337 1.55 300 1.55 489 1.55
 206  0.167  0.917  0.167- 490 1.55 293 1.55 346 1.55 338 1.55
 207  0.167  0.917  0.667- 294 1.55 347 1.55 491 1.55 339 1.55
 208  0.333  0.167  0.167- 492 1.55 340 1.55 303 1.55 348 1.55
 209  0.333  0.167  0.667- 341 1.55 304 1.55 493 1.55 349 1.55
 210  0.333  0.417  0.166- 494 1.54 342 1.54 305 1.55 350 1.55
 211  0.334  0.417  0.667- 495 1.54 306 1.55 343 1.55 351 1.55
 212  0.333  0.667  0.167- 496 1.55 307 1.55 344 1.55 352 1.55
 213  0.333  0.668  0.667- 308 1.54 353 1.54 345 1.55 497 1.55
 214  0.333  0.917  0.167- 498 1.55 301 1.55 346 1.55 354 1.55
 215  0.333  0.917  0.667- 302 1.55 499 1.55 347 1.55 355 1.55
 216  0.500  0.167  0.167- 311 1.55 500 1.55 348 1.55 356 1.55
 217  0.500  0.167  0.667- 349 1.55 501 1.55 312 1.55 357 1.55
 218  0.500  0.417  0.166- 502 1.54 350 1.55 358 1.55 313 1.55
 219  0.500  0.667  0.166- 504 1.54 314 1.54 352 1.55 360 1.55
 220  0.500  0.666  0.667- 505 1.54 353 1.55 315 1.55 361 1.55
 221  0.500  0.917  0.167- 309 1.55 506 1.55 362 1.55 354 1.55
 222  0.500  0.917  0.667- 507 1.55 355 1.55 310 1.55 363 1.55
 223  0.667  0.167  0.167- 508 1.55 318 1.55 364 1.55 356 1.55
 224  0.667  0.166  0.667- 319 1.54 365 1.54 509 1.55 357 1.55
 225  0.667  0.417  0.166- 510 1.54 366 1.54 320 1.55 358 1.55
 226  0.667  0.417  0.667- 367 1.54 511 1.54 321 1.55 359 1.55
 227  0.667  0.667  0.167- 512 1.55 322 1.55 368 1.55 360 1.55
 228  0.667  0.667  0.667- 323 1.54 369 1.55 513 1.55 361 1.57
 229  0.667  0.917  0.167- 514 1.55 316 1.55 370 1.55 362 1.55
 230  0.667  0.917  0.667- 515 1.55 371 1.55 317 1.55 363 1.55
 231  0.833  0.167  0.167- 516 1.55 326 1.55 372 1.55 364 1.55
 232  0.833  0.167  0.667- 373 1.55 517 1.55 327 1.55 365 1.55
 233  0.833  0.417  0.167- 328 1.55 366 1.55 374 1.55 518 1.55
 234  0.833  0.417  0.667- 375 1.54 519 1.55 329 1.55 367 1.55
 235  0.833  0.667  0.167- 368 1.54 520 1.55 376 1.55 330 1.55
 236  0.833  0.667  0.667- 377 1.55 331 1.55 521 1.55 369 1.55
 237  0.833  0.917  0.167- 522 1.55 378 1.55 324 1.55 370 1.55
 238  0.833  0.917  0.667- 325 1.55 379 1.55 371 1.55 523 1.55
 239  0.083  0.042  0.167- 524 1.55 332 1.55 293 1.55 285 1.55
 240  0.083  0.042  0.667- 294 1.55 333 1.55 525 1.55 286 1.55
 241  0.083  0.292  0.167- 295 1.55 526 1.55 334 1.55 287 1.55
 242  0.083  0.292  0.667- 527 1.55 296 1.55 335 1.55 288 1.55
 243  0.083  0.542  0.167- 528 1.55 289 1.55 297 1.55 336 1.55
 244  0.083  0.542  0.667- 298 1.54 290 1.54 337 1.55 529 1.55
 245  0.083  0.792  0.167- 299 1.55 530 1.55 338 1.55 291 1.55
 246  0.083  0.792  0.667- 300 1.54 339 1.55 292 1.55 531 1.55
 247  0.250  0.042  0.167- 532 1.55 340 1.55 301 1.55 293 1.55
 248  0.250  0.042  0.667- 341 1.55 294 1.55 533 1.55 302 1.55
 249  0.250  0.292  0.167- 295 1.55 303 1.55 342 1.55 534 1.55
 250  0.250  0.292  0.667- 535 1.55 304 1.55 296 1.55 343 1.55
 251  0.250  0.542  0.167- 536 1.55 297 1.55 344 1.55 305 1.55
 252  0.249  0.542  0.666- 298 1.54 306 1.54 345 1.55 537 1.55
 253  0.250  0.792  0.167- 538 1.55 346 1.55 299 1.55 307 1.55
 254  0.250  0.792  0.667- 308 1.54 347 1.54 539 1.55 300 1.55
 255  0.417  0.042  0.167- 348 1.55 540 1.55 301 1.55 309 1.55
 256  0.417  0.042  0.667- 302 1.55 541 1.55 349 1.55 310 1.55
 257  0.417  0.292  0.167- 303 1.55 542 1.55 311 1.55 350 1.55
 258  0.417  0.292  0.667- 304 1.54 543 1.55 312 1.55 351 1.57
 259  0.417  0.542  0.166- 544 1.54 305 1.55 352 1.55 313 1.55
 260  0.417  0.792  0.167- 354 1.55 307 1.55 546 1.55 314 1.55
 261  0.417  0.792  0.667- 547 1.55 355 1.55 308 1.55 315 1.55
 262  0.583  0.042  0.167- 356 1.55 548 1.55 316 1.55 309 1.55
 263  0.583  0.042  0.667- 357 1.55 549 1.55 317 1.55 310 1.55
 264  0.583  0.292  0.167- 550 1.55 318 1.55 358 1.55 311 1.55
 265  0.584  0.291  0.667- 319 1.54 312 1.55 551 1.55 359 1.55
 266  0.583  0.542  0.166- 552 1.54 360 1.55 320 1.55 313 1.55
 267  0.583  0.792  0.167- 322 1.55 362 1.55 314 1.55 554 1.55
 268  0.583  0.791  0.667- 555 1.55 323 1.55 363 1.55 315 1.55
 269  0.750  0.042  0.167- 556 1.55 364 1.55 324 1.55 316 1.55
 270  0.750  0.042  0.667- 365 1.55 325 1.55 557 1.55 317 1.55
 271  0.750  0.292  0.167- 366 1.55 326 1.55 318 1.55 558 1.55
 272  0.750  0.292  0.667- 327 1.54 559 1.55 319 1.55 367 1.55
 273  0.750  0.542  0.167- 560 1.55 328 1.55 368 1.55 320 1.55
 274  0.751  0.541  0.667- 329 1.54 369 1.55 561 1.55 321 1.55
 275  0.750  0.792  0.167- 562 1.55 330 1.55 370 1.55 322 1.55
 276  0.750  0.792  0.667- 371 1.55 331 1.55 323 1.55 563 1.55
 277  0.917  0.042  0.167- 564 1.55 372 1.55 324 1.55 285 1.55
 278  0.917  0.042  0.667- 286 1.55 373 1.55 565 1.55 325 1.55
 279  0.917  0.292  0.167- 566 1.55 374 1.55 326 1.55 287 1.55
 280  0.917  0.292  0.667- 288 1.55 375 1.55 567 1.55 327 1.55
 281  0.917  0.542  0.167- 568 1.55 328 1.55 289 1.55 376 1.55
 282  0.917  0.542  0.667- 329 1.54 290 1.54 377 1.55 569 1.55
 283  0.917  0.792  0.167- 330 1.55 570 1.55 291 1.55 378 1.55
 284  0.917  0.792  0.667- 292 1.55 379 1.55 571 1.55 331 1.55
 285  1.000  0.000  0.125-   1 1.55 198 1.55 277 1.55 239 1.55
 286  1.000  0.000  0.625- 278 1.55   2 1.55 199 1.55 240 1.55
 287  0.000  0.250  0.125-   3 1.55 192 1.55 241 1.55 279 1.55
 288  0.000  0.250  0.625- 280 1.55   4 1.55 193 1.55 242 1.55
 289  1.000  0.500  0.125-   5 1.55 243 1.55 281 1.55 194 1.55
 290  1.000  0.500  0.625- 244 1.54 282 1.54   6 1.55 195 1.55
 291  1.000  0.750  0.125-   7 1.55 283 1.55 245 1.55 196 1.55
 292  1.000  0.750  0.625- 284 1.55   8 1.55 197 1.55 246 1.55
 293  0.167  0.000  0.125-   9 1.55 239 1.55 206 1.55 247 1.55
 294  0.167  0.000  0.625- 207 1.55 240 1.55  10 1.55 248 1.55
 295  0.167  0.250  0.125- 241 1.55  11 1.55 200 1.55 249 1.55
 296  0.167  0.250  0.625-  12 1.55 242 1.55 201 1.55 250 1.55
 297  0.167  0.500  0.125-  13 1.55 251 1.55 243 1.55 202 1.55
 298  0.166  0.500  0.625- 252 1.54 244 1.54  14 1.55 203 1.55
 299  0.167  0.750  0.125-  15 1.55 245 1.55 253 1.55 204 1.55
 300  0.166  0.750  0.625- 246 1.54 205 1.55  16 1.55 254 1.55
 301  0.333  1.000  0.125-  17 1.55 214 1.55 255 1.55 247 1.55
 302  0.333  0.000  0.625-  18 1.55 215 1.55 256 1.55 248 1.55
 303  0.333  0.250  0.125-  19 1.55 257 1.55 208 1.55 249 1.55
 304  0.333  0.250  0.625- 258 1.54  20 1.55 209 1.55 250 1.55
 305  0.333  0.500  0.125-  21 1.54 259 1.55 210 1.55 251 1.55
 306  0.332  0.501  0.626- 572 1.52 252 1.54 211 1.55  22 1.55
 307  0.333  0.750  0.125-  23 1.55 212 1.55 260 1.55 253 1.55
 308  0.333  0.750  0.625- 213 1.54 254 1.54  24 1.55 261 1.55
 309  0.500  1.000  0.125- 221 1.55  25 1.55 262 1.55 255 1.55
 310  0.500  1.000  0.625-  26 1.55 263 1.55 222 1.55 256 1.55
 311  0.500  0.250  0.125-  27 1.54 216 1.55 264 1.55 257 1.55
 312  0.500  0.250  0.625-  28 1.55 217 1.55 258 1.55 265 1.55
 313  0.500  0.500  0.125-  29 1.54 266 1.55 218 1.55 259 1.55
 314  0.500  0.750  0.125- 219 1.54  30 1.54 267 1.55 260 1.55
 315  0.500  0.749  0.625-  31 1.55 268 1.55 261 1.55 220 1.55
 316  0.667  1.000  0.125-  32 1.55 262 1.55 229 1.55 269 1.55
 317  0.667  1.000  0.625-  33 1.55 230 1.55 263 1.55 270 1.55
 318  0.667  0.250  0.125-  34 1.55 223 1.55 264 1.55 271 1.55
 319  0.667  0.250  0.625- 265 1.54 224 1.54  35 1.55 272 1.55
 320  0.667  0.500  0.125-  36 1.54 266 1.55 273 1.55 225 1.55
 321  0.666  0.500  0.626- 575 1.49 226 1.55  37 1.55 274 1.55
 322  0.667  0.750  0.125-  38 1.55 267 1.55 227 1.55 275 1.55
 323  0.667  0.750  0.625- 228 1.54  39 1.55 268 1.55 276 1.55
 324  0.833  1.000  0.125-  40 1.55 269 1.55 237 1.55 277 1.55
 325  0.833  1.000  0.625- 270 1.55 238 1.55  41 1.55 278 1.55
 326  0.833  0.250  0.125-  42 1.55 231 1.55 279 1.55 271 1.55
 327  0.833  0.250  0.625- 272 1.54  43 1.55 280 1.55 232 1.55
 328  0.833  0.500  0.125-  44 1.55 281 1.55 273 1.55 233 1.55
 329  0.834  0.500  0.625- 274 1.54 282 1.54  45 1.55 234 1.55
 330  0.833  0.750  0.125- 283 1.55  46 1.55 275 1.55 235 1.55
 331  0.833  0.750  0.625-  47 1.55 276 1.55 284 1.55 236 1.55
 332  0.083  0.125  0.125- 239 1.55  48 1.55 192 1.55 200 1.55
 333  0.083  0.125  0.625- 193 1.55  49 1.55 240 1.55 201 1.55
 334  0.083  0.375  0.125- 202 1.55  50 1.55 194 1.55 241 1.55
 335  0.083  0.375  0.625-  51 1.55 242 1.55 195 1.55 203 1.55
 336  0.083  0.625  0.125- 196 1.55  52 1.55 204 1.55 243 1.55
 337  0.083  0.625  0.625- 197 1.54 205 1.55  53 1.55 244 1.55
 338  0.083  0.875  0.125-  54 1.55 198 1.55 245 1.55 206 1.55
 339  0.083  0.875  0.625- 199 1.55 246 1.55  55 1.55 207 1.55
 340  0.250  0.125  0.125-  56 1.55 247 1.55 208 1.55 200 1.55
 341  0.250  0.125  0.625- 209 1.55  57 1.55 248 1.55 201 1.55
 342  0.250  0.375  0.125- 210 1.54  58 1.54 249 1.55 202 1.55
 343  0.251  0.375  0.625-  59 1.55 250 1.55 203 1.55 211 1.55
 344  0.250  0.625  0.125-  60 1.54 204 1.55 212 1.55 251 1.55
 345  0.249  0.625  0.625- 205 1.54  61 1.55 252 1.55 213 1.55
 346  0.250  0.875  0.125-  62 1.55 253 1.55 206 1.55 214 1.55
 347  0.250  0.875  0.625- 254 1.54 207 1.55  63 1.55 215 1.55
 348  0.417  0.125  0.125- 255 1.55  64 1.55 216 1.55 208 1.55
 349  0.417  0.125  0.625-  65 1.55 256 1.55 217 1.55 209 1.55
 350  0.417  0.375  0.125-  66 1.54 218 1.55 257 1.55 210 1.55
 351  0.419  0.376  0.626- 574 1.51  67 1.55 211 1.55 258 1.57
 352  0.417  0.625  0.125-  68 1.54 259 1.55 219 1.55 212 1.55
 353  0.415  0.625  0.626- 572 1.52 213 1.54 220 1.55  69 1.55
 354  0.417  0.875  0.125- 260 1.55  70 1.55 221 1.55 214 1.55
 355  0.417  0.875  0.625-  71 1.55 261 1.55 222 1.55 215 1.55
 356  0.583  0.125  0.125- 262 1.55  72 1.55 216 1.55 223 1.55
 357  0.583  0.125  0.625- 263 1.55  73 1.55 217 1.55 224 1.55
 358  0.583  0.375  0.125-  74 1.54 218 1.55 264 1.55 225 1.55
 359  0.583  0.375  0.626- 574 1.49 226 1.55  75 1.55 265 1.55
 360  0.583  0.625  0.125-  76 1.54 266 1.55 219 1.55 227 1.55
 361  0.583  0.623  0.626- 575 1.51  77 1.55 220 1.55 228 1.57
 362  0.583  0.875  0.125- 267 1.55 221 1.55  78 1.55 229 1.55
 363  0.583  0.875  0.625-  79 1.55 222 1.55 268 1.55 230 1.55
 364  0.750  0.125  0.125-  80 1.55 269 1.55 223 1.55 231 1.55
 365  0.750  0.125  0.625- 224 1.54 270 1.55  81 1.55 232 1.55
 366  0.750  0.375  0.125-  82 1.54 225 1.54 271 1.55 233 1.55
 367  0.750  0.375  0.625- 226 1.54  83 1.55 234 1.55 272 1.55
 368  0.750  0.625  0.125-  84 1.54 235 1.54 273 1.55 227 1.55
 369  0.750  0.625  0.625-  85 1.55 236 1.55 228 1.55 274 1.55
 370  0.750  0.875  0.125-  86 1.55 229 1.55 275 1.55 237 1.55
 371  0.750  0.875  0.625- 276 1.55  87 1.55 230 1.55 238 1.55
 372  0.917  0.125  0.125-  88 1.55 277 1.55 231 1.55 192 1.55
 373  0.917  0.125  0.625- 232 1.55 278 1.55  89 1.55 193 1.55
 374  0.917  0.375  0.125- 194 1.55  90 1.55 279 1.55 233 1.55
 375  0.917  0.375  0.625- 234 1.54 280 1.55  91 1.55 195 1.55
 376  0.917  0.625  0.125- 196 1.55  92 1.55 235 1.55 281 1.55
 377  0.917  0.625  0.625- 197 1.55  93 1.55 236 1.55 282 1.55
 378  0.917  0.875  0.125-  94 1.55 237 1.55 283 1.55 198 1.55
 379  0.917  0.875  0.625- 238 1.55  95 1.55 284 1.55 199 1.55
 380  0.000  0.083  0.458-  96 1.55  89 1.55   2 1.55  49 1.55
 381  0.000  0.083  0.958-  88 1.55   1 1.55  97 1.55  48 1.55
 382  0.000  0.333  0.458-  98 1.55   4 1.55  91 1.55  51 1.55
 383  0.000  0.333  0.958-  50 1.55  90 1.55  99 1.55   3 1.55
 384  1.000  0.583  0.458- 100 1.55  53 1.55   6 1.55  93 1.55
 385  1.000  0.583  0.958-  52 1.55  92 1.55 101 1.55   5 1.55
 386  1.000  0.833  0.458- 102 1.55  95 1.55   8 1.55  55 1.55
 387  1.000  0.833  0.958-  94 1.55 103 1.55  54 1.55   7 1.55
 388  0.167  0.083  0.458- 104 1.55  49 1.55  10 1.55  57 1.55
 389  0.167  0.083  0.958-   9 1.55 105 1.55  56 1.55  48 1.55
 390  0.167  0.334  0.458- 106 1.55  12 1.55  51 1.55  59 1.55
 391  0.167  0.333  0.958-  58 1.55 107 1.55  11 1.55  50 1.55
 392  0.167  0.583  0.458-  61 1.55  14 1.55 108 1.55  53 1.55
 393  0.166  0.583  0.958-  52 1.55 109 1.55  13 1.55  60 1.55
 394  0.167  0.833  0.458- 110 1.55  16 1.55  63 1.55  55 1.55
 395  0.167  0.833  0.958-  54 1.55 111 1.55  15 1.55  62 1.55
 396  0.333  0.083  0.458- 112 1.55  57 1.55  65 1.55  18 1.55
 397  0.333  0.083  0.958-  17 1.55  64 1.55 113 1.55  56 1.55
 398  0.334  0.334  0.459-  59 1.54 114 1.55  20 1.55  67 1.56
 399  0.333  0.333  0.958- 115 1.55  66 1.55  58 1.55  19 1.55
 400  0.333  0.583  0.458-  22 1.54  69 1.54  61 1.55 116 1.55
 401  0.333  0.584  0.959- 117 1.54  60 1.54  68 1.55  21 1.55
 402  0.333  0.833  0.458- 118 1.55  71 1.55  24 1.55  63 1.55
 403  0.333  0.833  0.958- 119 1.55  23 1.55  62 1.55  70 1.55
 404  0.500  0.083  0.458- 120 1.55  73 1.55  65 1.55  26 1.55
 405  0.500  0.083  0.958-  25 1.55 121 1.55  72 1.55  64 1.55
 406  0.500  0.334  0.459-  75 1.54  67 1.54  28 1.55 122 1.55
 407  0.500  0.333  0.959- 123 1.54  27 1.54  74 1.55  66 1.55
 408  0.500  0.582  0.456- 576 1.48 124 1.54  77 1.56  69 1.56
 409  0.500  0.583  0.958-  29 1.55 125 1.55  76 1.55  68 1.55
 410  0.500  0.833  0.458- 126 1.55  79 1.55  71 1.55  31 1.55
 411  0.500  0.833  0.958-  30 1.55 127 1.55  78 1.55  70 1.55
 412  0.667  0.083  0.458- 128 1.55  73 1.55  81 1.55  33 1.55
 413  0.667  0.083  0.958-  32 1.55 129 1.55  72 1.55  80 1.55
 414  0.666  0.334  0.459-  83 1.54 130 1.55  35 1.55  75 1.56
 415  0.667  0.333  0.958- 131 1.55  34 1.55  82 1.55  74 1.55
 416  0.666  0.583  0.459-  37 1.54  77 1.54  85 1.55 132 1.55
 417  0.667  0.583  0.959- 133 1.54  84 1.54  36 1.55  76 1.55
 418  0.666  0.833  0.458- 134 1.55  79 1.55  87 1.55  39 1.55
 419  0.667  0.833  0.958-  38 1.55 135 1.55  78 1.55  86 1.55
 420  0.833  0.083  0.458- 136 1.55  81 1.55  89 1.55  41 1.55
 421  0.833  0.083  0.958-  40 1.55  80 1.55 137 1.55  88 1.55
 422  0.833  0.333  0.458- 138 1.55  43 1.55  91 1.55  83 1.55
 423  0.833  0.333  0.958-  82 1.55 139 1.55  42 1.55  90 1.55
 424  0.833  0.583  0.458-  45 1.55  85 1.55 140 1.55  93 1.55
 425  0.833  0.583  0.959-  92 1.55 141 1.55  44 1.55  84 1.55
 426  0.833  0.833  0.458-  87 1.55 142 1.55  47 1.55  95 1.55
 427  0.833  0.833  0.958-  86 1.55  46 1.55 143 1.55  94 1.55
 428  0.083  0.208  0.458- 144 1.55  49 1.55   4 1.55  12 1.55
 429  0.083  0.208  0.958-  11 1.55  48 1.55   3 1.55 145 1.55
 430  0.083  0.458  0.458- 146 1.55  51 1.55  14 1.55   6 1.55
 431  0.083  0.458  0.958-  13 1.55 147 1.55   5 1.55  50 1.55
 432  0.083  0.708  0.458- 148 1.55   8 1.55  16 1.55  53 1.55
 433  0.083  0.708  0.958-   7 1.55  15 1.55 149 1.55  52 1.55
 434  0.083  0.958  0.458- 150 1.55  55 1.55   2 1.55  10 1.55
 435  0.083  0.958  0.958-   1 1.55  54 1.55 151 1.55   9 1.55
 436  0.250  0.209  0.458- 152 1.55  12 1.55  57 1.55  20 1.55
 437  0.250  0.208  0.958-  19 1.55 153 1.55  11 1.55  56 1.55
 438  0.251  0.458  0.458-  59 1.54 154 1.55  14 1.55  22 1.55
 439  0.250  0.458  0.958- 155 1.55  21 1.55  58 1.55  13 1.55
 440  0.250  0.708  0.458-  61 1.55  24 1.55 156 1.55  16 1.55
 441  0.250  0.708  0.958-  15 1.55 157 1.55  23 1.55  60 1.55
 442  0.250  0.958  0.458- 158 1.55  18 1.55  63 1.55  10 1.55
 443  0.250  0.958  0.958-  62 1.55 159 1.55   9 1.55  17 1.55
 444  0.417  0.209  0.458-  20 1.55  28 1.55 160 1.55  65 1.55
 445  0.417  0.208  0.958-  64 1.55  19 1.55 161 1.55  27 1.55
 446  0.418  0.459  0.456- 576 1.48 162 1.54  67 1.56  22 1.56
 447  0.417  0.458  0.958-  29 1.55 163 1.55  66 1.55  21 1.55
 448  0.417  0.708  0.458-  31 1.55 164 1.55  24 1.55  69 1.55
 449  0.417  0.708  0.958- 165 1.55  68 1.55  23 1.55  30 1.55
 450  0.417  0.958  0.458- 166 1.55  26 1.55  18 1.55  71 1.55
 451  0.417  0.958  0.958-  70 1.55 167 1.55  17 1.55  25 1.55
 452  0.583  0.208  0.458-  35 1.55  28 1.55 168 1.55  73 1.55
 453  0.583  0.208  0.958-  72 1.55 169 1.55  34 1.55  27 1.55
 454  0.581  0.459  0.457- 576 1.48 170 1.54  37 1.56  75 1.56
 455  0.583  0.458  0.958- 171 1.54  29 1.55  36 1.55  74 1.55
 456  0.583  0.707  0.459-  31 1.54 172 1.55  39 1.55  77 1.56
 457  0.583  0.708  0.958- 173 1.55  76 1.55  38 1.55  30 1.55
 458  0.583  0.958  0.458- 174 1.55  33 1.55  26 1.55  79 1.55
 459  0.583  0.958  0.958-  78 1.55  32 1.55 175 1.55  25 1.55
 460  0.750  0.209  0.458- 176 1.55  43 1.55  35 1.55  81 1.55
 461  0.750  0.208  0.958-  80 1.55 177 1.55  34 1.55  42 1.55
 462  0.749  0.458  0.459-  83 1.54 178 1.55  45 1.55  37 1.56
 463  0.750  0.458  0.958- 179 1.55  44 1.55  36 1.55  82 1.55
 464  0.750  0.708  0.458-  39 1.55  85 1.55 180 1.55  47 1.55
 465  0.750  0.708  0.958-  46 1.55  38 1.55 181 1.55  84 1.55
 466  0.750  0.958  0.458- 182 1.55  33 1.55  41 1.55  87 1.55
 467  0.750  0.958  0.958-  86 1.55  32 1.55 183 1.55  40 1.55
 468  0.917  0.208  0.458- 184 1.55  89 1.55  43 1.55   4 1.55
 469  0.917  0.208  0.958-  42 1.55  88 1.55 185 1.55   3 1.55
 470  0.916  0.458  0.458- 186 1.55  91 1.55  45 1.55   6 1.55
 471  0.917  0.458  0.958-  44 1.55   5 1.55 187 1.55  90 1.55
 472  0.917  0.708  0.458- 188 1.55  47 1.55  93 1.55   8 1.55
 473  0.917  0.708  0.958-  46 1.55   7 1.55 189 1.55  92 1.55
 474  0.917  0.958  0.458- 190 1.55  41 1.55  95 1.55   2 1.55
 475  0.917  0.958  0.958-  40 1.55  94 1.55 191 1.55   1 1.55
 476  0.000  0.167  0.292- 192 1.55  96 1.55 184 1.55 144 1.55
 477  0.000  0.167  0.792-  97 1.55 185 1.55 193 1.55 145 1.55
 478  1.000  0.417  0.292- 194 1.55  98 1.55 146 1.55 186 1.55
 479  0.000  0.417  0.792- 147 1.55 195 1.55 187 1.55  99 1.55
 480  1.000  0.667  0.292- 196 1.55 188 1.55 148 1.55 100 1.55
 481  1.000  0.667  0.792- 189 1.55 197 1.55 149 1.55 101 1.55
 482  1.000  0.917  0.292- 198 1.55 190 1.55 102 1.55 150 1.55
 483  1.000  0.917  0.792- 191 1.55 199 1.55 103 1.55 151 1.55
 484  0.167  0.167  0.292- 200 1.55 144 1.55 104 1.55 152 1.55
 485  0.167  0.167  0.792- 201 1.55 145 1.55 153 1.55 105 1.55
 486  0.167  0.417  0.292- 106 1.55 154 1.55 146 1.55 202 1.55
 487  0.167  0.417  0.792- 155 1.55 203 1.55 107 1.55 147 1.55
 488  0.167  0.667  0.292- 204 1.55 148 1.55 156 1.55 108 1.55
 489  0.166  0.667  0.792- 149 1.55 157 1.55 205 1.55 109 1.55
 490  0.167  0.917  0.292- 206 1.55 110 1.55 150 1.55 158 1.55
 491  0.167  0.917  0.792- 151 1.55 111 1.55 207 1.55 159 1.55
 492  0.333  0.167  0.292- 208 1.55 160 1.55 152 1.55 112 1.55
 493  0.333  0.167  0.792- 161 1.55 113 1.55 209 1.55 153 1.55
 494  0.333  0.417  0.291- 162 1.54 210 1.54 114 1.55 154 1.55
 495  0.334  0.417  0.791- 163 1.54 211 1.54 115 1.55 155 1.55
 496  0.333  0.667  0.292- 116 1.55 212 1.55 164 1.55 156 1.55
 497  0.333  0.667  0.792- 157 1.54 165 1.55 117 1.55 213 1.55
 498  0.333  0.917  0.292- 214 1.55 166 1.55 118 1.55 158 1.55
 499  0.333  0.917  0.792- 119 1.55 215 1.55 167 1.55 159 1.55
 500  0.500  0.167  0.292- 216 1.55 120 1.55 160 1.55 168 1.55
 501  0.500  0.167  0.792- 217 1.55 121 1.55 169 1.55 161 1.55
 502  0.500  0.417  0.291- 218 1.54 122 1.55 170 1.55 162 1.55
 503  0.501  0.416  0.791- 574 1.49 171 1.55 123 1.55 163 1.56
 504  0.500  0.667  0.291- 124 1.54 219 1.54 172 1.55 164 1.55
 505  0.500  0.666  0.792- 125 1.54 220 1.54 173 1.55 165 1.55
 506  0.500  0.917  0.292- 221 1.55 174 1.55 166 1.55 126 1.55
 507  0.500  0.917  0.792- 127 1.55 222 1.55 175 1.55 167 1.55
 508  0.667  0.167  0.292- 223 1.55 168 1.55 176 1.55 128 1.55
 509  0.667  0.167  0.792- 129 1.55 177 1.55 169 1.55 224 1.55
 510  0.667  0.417  0.291- 170 1.54 225 1.54 130 1.55 178 1.55
 511  0.667  0.417  0.792- 226 1.54 171 1.54 179 1.55 131 1.55
 512  0.667  0.667  0.292- 132 1.55 172 1.55 227 1.55 180 1.55
 513  0.667  0.666  0.792- 173 1.55 181 1.55 133 1.55 228 1.55
 514  0.667  0.917  0.292- 174 1.55 229 1.55 182 1.55 134 1.55
 515  0.667  0.917  0.792- 135 1.55 230 1.55 175 1.55 183 1.55
 516  0.833  0.167  0.292- 231 1.55 136 1.55 184 1.55 176 1.55
 517  0.833  0.167  0.792- 177 1.55 137 1.55 232 1.55 185 1.55
 518  0.833  0.417  0.292- 186 1.55 138 1.55 233 1.55 178 1.55
 519  0.833  0.417  0.792- 179 1.55 187 1.55 234 1.55 139 1.55
 520  0.833  0.667  0.292- 235 1.55 188 1.55 180 1.55 140 1.55
 521  0.833  0.667  0.792- 181 1.55 236 1.55 189 1.55 141 1.55
 522  0.833  0.917  0.292- 237 1.55 182 1.55 190 1.55 142 1.55
 523  0.833  0.917  0.792- 183 1.55 143 1.55 238 1.55 191 1.55
 524  0.083  0.042  0.292- 239 1.55 150 1.55  96 1.55 104 1.55
 525  0.083  0.042  0.792- 151 1.55  97 1.55 240 1.55 105 1.55
 526  0.083  0.292  0.292- 241 1.55 144 1.55  98 1.55 106 1.55
 527  0.083  0.292  0.792- 107 1.55 242 1.55  99 1.55 145 1.55
 528  0.083  0.542  0.292- 243 1.55 108 1.55 146 1.55 100 1.55
 529  0.083  0.542  0.792- 101 1.55 109 1.55 147 1.55 244 1.55
 530  0.083  0.792  0.292- 245 1.55 102 1.55 110 1.55 148 1.55
 531  0.083  0.792  0.792- 103 1.55 111 1.55 246 1.55 149 1.55
 532  0.250  0.042  0.292- 247 1.55 104 1.55 158 1.55 112 1.55
 533  0.250  0.042  0.792- 248 1.55 159 1.55 113 1.55 105 1.55
 534  0.250  0.292  0.292- 152 1.55 106 1.55 249 1.55 114 1.55
 535  0.250  0.292  0.792- 250 1.55 115 1.55 107 1.55 153 1.55
 536  0.250  0.542  0.292- 116 1.55 251 1.55 154 1.55 108 1.55
 537  0.250  0.542  0.792- 109 1.54 155 1.55 117 1.55 252 1.55
 538  0.250  0.792  0.292- 253 1.55 156 1.55 110 1.55 118 1.55
 539  0.250  0.792  0.792- 111 1.55 157 1.55 119 1.55 254 1.55
 540  0.417  0.042  0.292- 255 1.55 112 1.55 166 1.55 120 1.55
 541  0.417  0.042  0.792- 256 1.55 167 1.55 113 1.55 121 1.55
 542  0.417  0.292  0.292- 122 1.55 114 1.55 257 1.55 160 1.55
 543  0.417  0.292  0.792- 115 1.55 161 1.55 258 1.55 123 1.55
 544  0.416  0.542  0.291- 259 1.54 116 1.55 124 1.55 162 1.55
 545  0.415  0.542  0.792- 572 1.52 117 1.54 125 1.55 163 1.55
 546  0.417  0.792  0.292- 164 1.55 118 1.55 126 1.55 260 1.55
 547  0.417  0.792  0.792- 165 1.55 261 1.55 127 1.55 119 1.55
 548  0.583  0.042  0.292- 262 1.55 128 1.55 174 1.55 120 1.55
 549  0.583  0.042  0.792- 175 1.55 263 1.55 129 1.55 121 1.55
 550  0.583  0.292  0.292- 264 1.55 130 1.55 122 1.55 168 1.55
 551  0.584  0.292  0.792- 169 1.55 131 1.55 265 1.55 123 1.55
 552  0.583  0.542  0.291- 266 1.54 132 1.55 170 1.55 124 1.55
 553  0.584  0.541  0.791- 575 1.49 171 1.55 133 1.55 125 1.56
 554  0.583  0.792  0.292- 134 1.55 126 1.55 267 1.55 172 1.55
 555  0.583  0.791  0.792- 268 1.55 173 1.55 135 1.55 127 1.55
 556  0.750  0.042  0.292- 269 1.55 128 1.55 136 1.55 182 1.55
 557  0.750  0.042  0.792- 183 1.55 129 1.55 270 1.55 137 1.55
 558  0.750  0.292  0.292- 176 1.55 138 1.55 271 1.55 130 1.55
 559  0.750  0.292  0.792- 131 1.55 272 1.55 177 1.55 139 1.55
 560  0.750  0.542  0.292- 273 1.55 132 1.55 178 1.55 140 1.55
 561  0.750  0.542  0.792- 141 1.55 179 1.55 274 1.55 133 1.55
 562  0.750  0.792  0.292- 275 1.55 134 1.55 142 1.55 180 1.55
 563  0.750  0.792  0.792- 135 1.55 143 1.55 181 1.55 276 1.55
 564  0.917  0.042  0.292- 277 1.55 136 1.55 190 1.55  96 1.55
 565  0.917  0.042  0.792- 137 1.55 191 1.55 278 1.55  97 1.55
 566  0.917  0.292  0.292- 279 1.55 184 1.55  98 1.55 138 1.55
 567  0.917  0.292  0.792- 139 1.55 280 1.55 185 1.55  99 1.55
 568  0.917  0.542  0.292- 281 1.55 100 1.55 186 1.55 140 1.55
 569  0.917  0.542  0.792- 101 1.55 141 1.55 187 1.55 282 1.55
 570  0.917  0.792  0.292- 283 1.55 142 1.55 102 1.55 188 1.55
 571  0.917  0.792  0.792- 143 1.55 284 1.55 189 1.55 103 1.55
 572  0.411  0.545  0.669- 573 1.09 353 1.52 306 1.52 545 1.52
 573  0.470  0.515  0.642- 572 1.09
 574  0.502  0.411  0.671- 359 1.49 503 1.49 351 1.51
 575  0.590  0.543  0.671- 321 1.49 553 1.49 361 1.51
 576  0.500  0.500  0.488- 408 1.48 446 1.48 454 1.48
 
  LATTYP: Found a simple monoclinic cell.
 ALAT       =    12.3703241348
 B/A-ratio  =     1.2248453018
 C/A-ratio  =     1.4141600350
 COS(beta)  =    -0.0000282295
  
  Lattice vectors:
  
 A1 = (   0.0000000000,  -0.0003492082,  12.3703241299)
 A2 = (  15.1517333984,   0.0000000000,   0.0000000000)
 A3 = (   0.0000000000,  17.4936180115,   0.0000000000)


Analysis of symmetry for initial positions (statically):
=====================================================================
 Subroutine PRICEL returns:
 Original cell was already a primitive cell.
 

 Routine SETGRP: Setting up the symmetry group for a 
 simple monoclinic supercell.


 Subroutine GETGRP returns: Found  1 space group operations
 (whereof  1 operations were pure point group operations)
 out of a pool of  4 trial point group operations.


The static configuration has the point symmetry C_1 .


Analysis of symmetry for dynamics (positions and initial velocities):
=====================================================================
 Subroutine PRICEL returns:
 Original cell was already a primitive cell.
 

 Routine SETGRP: Setting up the symmetry group for a 
 simple monoclinic supercell.


 Subroutine GETGRP returns: Found  1 space group operations
 (whereof  1 operations were pure point group operations)
 out of a pool of  4 trial point group operations.


The dynamic configuration has the point symmetry C_1 .


Analysis of structural, dynamic, and magnetic symmetry:
=====================================================================
 Subroutine PRICEL returns:
 Original cell was already a primitive cell.
 

 Routine SETGRP: Setting up the symmetry group for a 
 simple monoclinic supercell.


 Subroutine GETGRP returns: Found  1 space group operations
 (whereof  1 operations were pure point group operations)
 out of a pool of  4 trial point group operations.


The overall configuration has the point symmetry C_1 .


 Subroutine INISYM returns: Found  1 space group operations
 (whereof  1 operations are pure point group operations),
 and found     1 'primitive' translations


----------------------------------------------------------------------------------------

                                     Primitive cell                                     

  volume of cell :    3278.8612

  direct lattice vectors                    reciprocal lattice vectors
    15.151733398  0.000000000  0.000000000     0.065999049  0.000000000  0.000000000
     0.000000000 17.493618012  0.000000000     0.000000000  0.057163704  0.000001614
     0.000000000 -0.000349208 12.370324130     0.000000000  0.000000000  0.080838626

  length of vectors
    15.151733398 17.493618012 12.370324135     0.065999049  0.057163704  0.080838626

  position of ions in fractional coordinates (direct lattice)
     0.999988476  0.000032021  0.000029525
     0.999990310  0.000046270  0.499994243
     0.000019311  0.250002422  0.000017935
     0.000033525  0.250054492  0.500011119
     0.999977045  0.499998083  0.000072742
     0.999936649  0.500003358  0.500047207
     0.999948943  0.750030250  0.000091916
     0.999922687  0.750012035  0.500079786
     0.166654207  0.000040182  0.000023775
     0.166687499  0.000068852  0.500013143
     0.166673457  0.250032221  0.999985206
     0.166797647  0.250156287  0.500039335
     0.166599748  0.500026094  0.000005292
     0.166817135  0.500090196  0.500025324
     0.166558132  0.750077407  0.000113591
     0.166588592  0.750055290  0.500047224
     0.333344645  0.000010574  0.000027930
     0.333373425  0.000006652  0.500037337
     0.333357104  0.250033486  0.999967919
     0.333657427  0.250406156  0.500136620
     0.333273217  0.500034622  0.999835556
     0.334242384  0.500577553  0.500283509
     0.333283096  0.750040465  0.999987369
     0.333341026  0.749808880  0.500041510
     0.500008569  0.999976355  0.000038285
     0.500003941  0.999957866  0.500051237
     0.500028054  0.249841083  0.000409453
     0.500050226  0.250185800  0.500124864
     0.500038097  0.499961979  0.999690316
     0.499979610  0.750015910  0.999864081
     0.499934242  0.749537483  0.500130991
     0.666668247  0.999950288  0.000056373
     0.666629242  0.999931708  0.500039114
     0.666703651  0.249952245  0.000073770
     0.666491767  0.250236746  0.500147963
     0.666760826  0.499975885  0.000102489
     0.665254740  0.500253497  0.500663623
     0.666628009  0.749961825  0.000001107
     0.666417954  0.749536922  0.500149281
     0.833331797  0.999988454  0.000040687
     0.833294334  0.999978639  0.500013787
     0.833367401  0.249978692  0.000035470
     0.833281929  0.250074498  0.500049586
     0.833362956  0.499971604  0.000092018
     0.833001026  0.499982878  0.500153794
     0.833316374  0.750003920  0.000110608
     0.833221615  0.749908462  0.500092407
     0.083337702  0.125032824  0.000012732
     0.083378926  0.125079333  0.500001281
     0.083316494  0.375004960  0.999977597
     0.083444047  0.375067931  0.500038669
     0.083224915  0.625040951  0.000154479
     0.083214391  0.625018225  0.500058182
     0.083277626  0.875052770  0.000063642
     0.083282903  0.875056742  0.500035390
     0.250016738  0.125023895  0.000005927
     0.250111763  0.125144948  0.500029896
     0.249956136  0.375006792  0.999817378
     0.250437430  0.375288593  0.500112344
     0.249751747  0.625127145  0.000360666
     0.249822740  0.625074555  0.499998214
     0.249961489  0.875039254  0.000034969
     0.249994148  0.874986486  0.500025277
     0.416675987  0.124983117  0.000059550
     0.416719198  0.125099501  0.500061462
     0.416702168  0.374963744  0.999832803
     0.417886573  0.376151998  0.500479312
     0.416602153  0.625036177  0.999820296
     0.416540710  0.624037181  0.500284861
     0.416657432  0.875006818  0.999988715
     0.416689065  0.874856557  0.500044517
     0.583356819  0.124941149  0.000106952
     0.583333564  0.125046209  0.500067511
     0.583395989  0.374884234  0.000076107
     0.582373073  0.375897183  0.500670707
     0.583365812  0.624983408  0.999872589
     0.582770706  0.623487771  0.500460744
     0.583316321  0.874966010  0.999998618
     0.583258607  0.874792262  0.500059067
     0.750017073  0.124957480  0.000048812
     0.749954139  0.125039007  0.500028498
     0.750086822  0.374937259  0.999972143
     0.749699587  0.375143597  0.500208140
     0.750151273  0.625042729  0.000473225
     0.749777520  0.624822331  0.500144399
     0.749981173  0.874965230  0.000036111
     0.749902640  0.874841486  0.500050142
     0.916681604  0.125005016  0.000023354
     0.916661796  0.125043617  0.499999024
     0.916687422  0.374980649  0.000020483
     0.916601762  0.375028812  0.500061434
     0.916667877  0.625005396  0.000169028
     0.916534182  0.624952968  0.500100072
     0.916635599  0.875021018  0.000059181
     0.916608267  0.874994202  0.500031902
     0.000001904  0.083379072  0.333345477
     0.000013009  0.083362748  0.833329556
     0.000007441  0.333359607  0.333385288
     0.000037847  0.333327141  0.833314407
     0.999934448  0.583320193  0.333415559
     0.999931092  0.583339713  0.833438132
     0.999957877  0.833356205  0.333404252
     0.999941395  0.833373279  0.833380677
     0.166716049  0.083398720  0.333344670
     0.166694641  0.083388092  0.833312165
     0.166764996  0.333417442  0.333391404
     0.166717058  0.333383487  0.833238846
     0.166583121  0.583349695  0.333342578
     0.166433163  0.583397960  0.833460476
     0.166644375  0.833369881  0.333377657
     0.166568889  0.833440585  0.833391477
     0.333365204  0.083374745  0.333381801
     0.333337461  0.083362735  0.833322499
     0.333454043  0.333532556  0.333330609
     0.333436334  0.333484006  0.833187953
     0.333195718  0.583396447  0.333054279
     0.332725632  0.583651096  0.834478476
     0.333321621  0.833315084  0.333347786
     0.333271885  0.833364725  0.833325906
     0.500011014  0.083327835  0.333436721
     0.500020894  0.083336167  0.833353927
     0.500015625  0.333428200  0.333296474
     0.500167728  0.333062774  0.834602580
     0.499824091  0.583838655  0.331738341
     0.499846718  0.583111902  0.832788199
     0.499981388  0.833217442  0.333406235
     0.499973563  0.833283211  0.833281906
     0.666658425  0.083327986  0.333394478
     0.666718234  0.083254428  0.833368481
     0.666578178  0.333463420  0.333389793
     0.666802510  0.333274422  0.833407529
     0.666557379  0.583248625  0.333286116
     0.666990773  0.583313974  0.834631703
     0.666608796  0.833217475  0.333407501
     0.666625077  0.833240895  0.833308523
     0.833298580  0.083354191  0.333344891
     0.833341260  0.083300715  0.833334385
     0.833253128  0.333374582  0.333434241
     0.833403081  0.333274922  0.833312832
     0.833230481  0.583275014  0.333458385
     0.833364031  0.583255870  0.833493033
     0.833263079  0.833292245  0.333403701
     0.833277201  0.833312421  0.833361921
     0.083385003  0.208390819  0.333373042
     0.083378213  0.208369875  0.833320750
     0.083329903  0.458338968  0.333365835
     0.083345321  0.458354505  0.833345092
     0.083282071  0.708355860  0.333453504
     0.083236655  0.708392756  0.833423143
     0.083342418  0.958383305  0.333366684
     0.083315441  0.958398642  0.833357136
     0.250072212  0.208447372  0.333409277
     0.250058952  0.208417101  0.833322848
     0.250048300  0.458390076  0.333203923
     0.250013276  0.458440286  0.833290580
     0.249936986  0.708372667  0.333368631
     0.249802096  0.708515675  0.833468393
     0.250020522  0.958360775  0.333384856
     0.249976599  0.958378857  0.833369833
     0.416679110  0.208423218  0.333415441
     0.416672269  0.208392433  0.833359006
     0.416066232  0.458212880  0.331742157
     0.416804662  0.458544497  0.832754764
     0.416627172  0.708264428  0.333205517
     0.416564597  0.708306373  0.833289133
     0.416664845  0.958301572  0.333401796
     0.416645824  0.958330262  0.833334860
     0.583351893  0.208388779  0.333441042
     0.583462493  0.208273070  0.833456493
     0.583670249  0.458154554  0.332045644
     0.583477308  0.458237447  0.833505121
     0.583225784  0.708133311  0.333358450
     0.583247129  0.708169220  0.833250327
     0.583339422  0.958271904  0.333413464
     0.583343385  0.958279712  0.833338199
     0.749972219  0.208392725  0.333418746
     0.750058483  0.208276957  0.833389671
     0.749812101  0.458328958  0.333414354
     0.750070201  0.458236374  0.833451894
     0.749908400  0.708249920  0.333459398
     0.749909047  0.708273265  0.833411390
     0.749966536  0.958291137  0.333400212
     0.749988702  0.958279475  0.833371950
     0.916641063  0.208374137  0.333377335
     0.916690889  0.208319825  0.833334195
     0.916587911  0.458314077  0.333412369
     0.916678890  0.458304463  0.833390236
     0.916606172  0.708314388  0.333489478
     0.916572004  0.708325639  0.833418594
     0.916624396  0.958344263  0.333362609
     0.916630472  0.958348131  0.833352811
     0.000008935  0.166698934  0.166690720
     0.000046589  0.166702469  0.666635984
     0.999980041  0.416661188  0.166703361
     0.000069590  0.416670845  0.666675599
     0.999955149  0.666681669  0.166786947
     0.999851612  0.666705858  0.666707179
     0.999979650  0.916698932  0.166710923
     0.999952116  0.916721663  0.666661781
     0.166692462  0.166711288  0.166693319
     0.166743076  0.166755271  0.666656283
     0.166638083  0.416683841  0.166617101
     0.166794696  0.416773937  0.666649096
     0.166546792  0.666727953  0.166842456
     0.166348197  0.666842130  0.666673621
     0.166654528  0.916707053  0.166714228
     0.166578477  0.916802776  0.666673511
     0.333356121  0.166696775  0.166712766
     0.333323745  0.166666810  0.666647017
     0.333144335  0.416622293  0.166184578
     0.333996633  0.417359044  0.666745200
     0.333254286  0.666728753  0.166569840
     0.332617405  0.667615221  0.666513567
     0.333339291  0.916676961  0.166706172
     0.333319220  0.916681894  0.666679949
     0.500008988  0.166619543  0.166835951
     0.500054290  0.166700341  0.666668929
     0.499978176  0.416610740  0.166187400
     0.499954158  0.666823911  0.166205594
     0.499634557  0.665861745  0.666751394
     0.500005581  0.916633772  0.166703775
     0.499989868  0.916587065  0.666657198
     0.666667152  0.166654544  0.166761137
     0.666919438  0.166392777  0.666667462
     0.666794118  0.416589973  0.166377889
     0.666729631  0.416621451  0.666863133
     0.666638687  0.666649831  0.166684443
     0.666528965  0.666714705  0.666574229
     0.666656071  0.916622222  0.166728246
     0.666629908  0.916559072  0.666673803
     0.833330448  0.166682670  0.166714461
     0.833392543  0.166619591  0.666666243
     0.833316139  0.416663436  0.166729668
     0.833467648  0.416609974  0.666715689
     0.833355264  0.666677640  0.166923730
     0.833224665  0.666600711  0.666710701
     0.833311839  0.916662053  0.166721137
     0.833328555  0.916651940  0.666662987
     0.083347911  0.041708169  0.166680351
     0.083346792  0.041740395  0.666642683
     0.083362507  0.291691278  0.166689912
     0.083408448  0.291714501  0.666632208
     0.083283937  0.541673029  0.166718768
     0.083035206  0.541685807  0.666650403
     0.083293548  0.791704592  0.166749873
     0.083221323  0.791768344  0.666697356
     0.250020279  0.041690081  0.166663275
     0.250000042  0.041689295  0.666619663
     0.250023208  0.291713773  0.166628727
     0.250201430  0.291839460  0.666620276
     0.249901352  0.541697507  0.166557586
     0.248784221  0.541762967  0.666494094
     0.249954501  0.791706628  0.166673228
     0.249765172  0.792004543  0.666652719
     0.416671009  0.041649466  0.166724923
     0.416679821  0.041666339  0.666655416
     0.416660732  0.291686945  0.166640147
     0.416554546  0.291709075  0.666537075
     0.416526982  0.541737079  0.166077624
     0.416637563  0.791668633  0.166614261
     0.416605063  0.791562587  0.666655033
     0.583347123  0.041627254  0.166738637
     0.583351443  0.041612170  0.666663386
     0.583355095  0.291648983  0.166722140
     0.584190244  0.291065430  0.666579475
     0.583369101  0.541699020  0.166191994
     0.583324782  0.791621682  0.166670904
     0.583276643  0.791424901  0.666653169
     0.749989860  0.041647175  0.166684763
     0.750059765  0.041542791  0.666632607
     0.749993738  0.291674584  0.166691663
     0.750112076  0.291560679  0.666675442
     0.750006715  0.541654813  0.166725509
     0.750954894  0.541290868  0.666595303
     0.749966537  0.791634959  0.166717798
     0.749966855  0.791667339  0.666636535
     0.916645615  0.041687187  0.166685574
     0.916669414  0.041681548  0.666638314
     0.916652486  0.291681154  0.166709768
     0.916723454  0.291645139  0.666642289
     0.916632347  0.541655899  0.166769477
     0.916874218  0.541605993  0.666678186
     0.916630313  0.791680318  0.166752527
     0.916593307  0.791670419  0.666694638
     0.999991632  0.000031646  0.125014448
     0.999992124  0.000052891  0.624977711
     0.000010789  0.250025888  0.125009838
     0.000058337  0.250037624  0.624982345
     0.999966291  0.500008472  0.125043632
     0.999987940  0.500052107  0.625053176
     0.999964385  0.750026534  0.125074808
     0.999909443  0.750043078  0.625056803
     0.166663252  0.000033774  0.125000753
     0.166631948  0.000072631  0.624984900
     0.166681150  0.250037941  0.124982217
     0.166796859  0.250146633  0.624998853
     0.166593717  0.500031197  0.124940346
     0.166119104  0.500189001  0.625055588
     0.166581398  0.750057354  0.125060049
     0.166474489  0.750165455  0.625026332
     0.333352964  0.999999446  0.125008675
     0.333361190  0.000000793  0.624995632
     0.333356223  0.250023945  0.124945067
     0.333480315  0.250021499  0.625082093
     0.333219280  0.500017203  0.124609016
     0.332170136  0.500910849  0.625589500
     0.333281680  0.750043206  0.124919615
     0.332861665  0.750400870  0.625071168
     0.500010742  0.999965691  0.125035216
     0.500006291  0.999941138  0.625014564
     0.500012663  0.249892323  0.125172609
     0.500167175  0.250077263  0.625065250
     0.499964899  0.500013970  0.124555579
     0.499976703  0.750047693  0.124741847
     0.499973674  0.749451463  0.625112133
     0.666657244  0.999952952  0.125035600
     0.666652739  0.999895580  0.625004536
     0.666667474  0.249971560  0.125021227
     0.666915568  0.249549266  0.625141611
     0.666741645  0.499977732  0.124798215
     0.666303520  0.500163626  0.626086585
     0.666644126  0.749972006  0.124975231
     0.666694156  0.749871784  0.625099432
     0.833327836  0.999993235  0.125012875
     0.833360446  0.999946572  0.624984296
     0.833335273  0.250007196  0.125015635
     0.833378903  0.249984472  0.625025930
     0.833345983  0.500003141  0.125035409
     0.833817122  0.500006352  0.625149440
     0.833330166  0.750001969  0.125101439
     0.833283109  0.749957963  0.625058023
     0.083342349  0.125039284  0.125009501
     0.083378527  0.125079959  0.624985459
     0.083308606  0.375020118  0.124974224
     0.083458355  0.375056965  0.625023888
     0.083243392  0.625042868  0.125112190
     0.083095112  0.625090146  0.625048620
     0.083296889  0.875038547  0.125046418
     0.083246465  0.875086677  0.625021292
     0.250026611  0.125029065  0.125004081
     0.250054814  0.125022897  0.625006692
     0.249914837  0.375003778  0.124695197
     0.250572691  0.375320934  0.625092320
     0.249801339  0.625108067  0.125099106
     0.249471278  0.625291876  0.625003497
     0.249977677  0.875037603  0.125016762
     0.249856045  0.875163308  0.625027742
     0.416686499  0.124976238  0.125064113
     0.416724068  0.125014018  0.625038654
     0.416607738  0.374989579  0.124626273
     0.418516306  0.376406135  0.625743250
     0.416602818  0.625093514  0.124587062
     0.415179277  0.625486186  0.625601721
     0.416662503  0.874995156  0.124983317
     0.416679926  0.874894592  0.625026777
     0.583331743  0.124950172  0.125093974
     0.583379098  0.124936003  0.625041934
     0.583392706  0.374927212  0.124774960
     0.582985131  0.375159334  0.626099144
     0.583304471  0.625048877  0.124659616
     0.582813974  0.622939409  0.625732425
     0.583325030  0.874954910  0.125011366
     0.583270615  0.874798067  0.625030940
     0.749995860  0.124985663  0.125034121
     0.750090208  0.124821593  0.625020987
     0.750067159  0.374967739  0.124839233
     0.749891064  0.375046459  0.625245562
     0.750114097  0.625052796  0.125227904
     0.749927524  0.624809157  0.625104776
     0.749987880  0.874970012  0.125030708
     0.750005513  0.874952895  0.625023065
     0.916670633  0.125020248  0.125017177
     0.916703842  0.125007880  0.624986782
     0.916660942  0.375010157  0.125018170
     0.916717555  0.374990773  0.625051354
     0.916663816  0.625018168  0.125140453
     0.916601951  0.624993272  0.625082716
     0.916650756  0.875014499  0.125052769
     0.916633116  0.875000728  0.625014425
     0.000011056  0.083392233  0.458324430
     0.000005541  0.083357333  0.958339923
     0.000024211  0.333400375  0.458362788
     0.000010909  0.333336755  0.958320587
     0.999899693  0.583343817  0.458387288
     0.999957198  0.583370176  0.958445196
     0.999944057  0.833356098  0.458374400
     0.999956758  0.833367816  0.958385308
     0.166737927  0.083440227  0.458319385
     0.166675401  0.083366992  0.958318421
     0.166923412  0.333518241  0.458384799
     0.166659358  0.333361482  0.958201863
     0.166598603  0.583383788  0.458314359
     0.166486267  0.583414567  0.958450008
     0.166617655  0.833367759  0.458353812
     0.166577105  0.833402431  0.958386307
     0.333403716  0.083397017  0.458361314
     0.333348727  0.083328345  0.958333736
     0.333979525  0.334106576  0.458513865
     0.333364559  0.333379531  0.958122610
     0.333230209  0.583383876  0.458211123
     0.332856751  0.583581062  0.958705152
     0.333378093  0.833193291  0.458302778
     0.333284987  0.833363674  0.958307156
     0.500016305  0.083342726  0.458405360
     0.500016243  0.083299063  0.958370709
     0.500091096  0.333703154  0.458553604
     0.500073957  0.332937710  0.958799917
     0.499739781  0.581519485  0.456303986
     0.500009290  0.583272262  0.957850625
     0.499966781  0.833040629  0.458404034
     0.499979968  0.833317468  0.958248478
     0.666631551  0.083321647  0.458365852
     0.666682663  0.083257439  0.958374474
     0.666171385  0.333977147  0.458518014
     0.666743311  0.333254800  0.958309096
     0.666298659  0.583049521  0.458534428
     0.667068432  0.583453136  0.958839075
     0.666496985  0.833019230  0.458370872
     0.666647049  0.833282495  0.958307063
     0.833287622  0.083362133  0.458311897
     0.833340750  0.083306006  0.958342719
     0.833151492  0.333440958  0.458402846
     0.833384605  0.333297637  0.958282530
     0.833121027  0.583259017  0.458436856
     0.833404987  0.583347188  0.958502242
     0.833249821  0.833250062  0.458376852
     0.833316518  0.833325259  0.958374236
     0.083421624  0.208429533  0.458344217
     0.083359959  0.208360065  0.958327236
     0.083425439  0.458374685  0.458307452
     0.083310878  0.458361895  0.958332244
     0.083263746  0.708364222  0.458407525
     0.083254837  0.708384815  0.958424521
     0.083339861  0.958388834  0.458335029
     0.083318429  0.958376706  0.958357723
     0.250204471  0.208614796  0.458370381
     0.250028169  0.208372380  0.958316406
     0.250670250  0.458489673  0.458259685
     0.249954937  0.458390362  0.958202588
     0.249926423  0.708340395  0.458338230
     0.249834107  0.708449137  0.958447333
     0.250027960  0.958346330  0.458356835
     0.249985296  0.958363686  0.958369639
     0.416774443  0.208529551  0.458413106
     0.416678261  0.208298173  0.958393325
     0.418340938  0.459420328  0.456315461
     0.416716996  0.458348364  0.957817257
     0.416849953  0.707740483  0.458277117
     0.416597544  0.708354457  0.958198519
     0.416675427  0.958257314  0.458374424
     0.416654309  0.958325298  0.958333996
     0.583306377  0.208471854  0.458421511
     0.583382531  0.208229323  0.958461836
     0.581326731  0.459317654  0.456829091
     0.583472147  0.458242211  0.958163861
     0.582896338  0.707455215  0.458531970
     0.583313982  0.708280961  0.958186221
     0.583320352  0.958210325  0.458383576
     0.583344354  0.958290111  0.958346086
     0.749884470  0.208505791  0.458356917
     0.750027206  0.208281495  0.958380320
     0.749099151  0.458373813  0.458517158
[...]
 196      -0.003     0.002     0.004       1.208
 197      -0.004    -0.001     0.016       0.156
 198      -0.001    -0.000     0.001       0.714
 199       0.004     0.000     0.007      -0.625
 200      -0.001     0.001     0.002       0.914
 201       0.002    -0.001     0.014      -0.238
 202       0.003     0.003    -0.007       0.012
 203      -0.012    -0.010     0.021       0.085
 204       0.003     0.001    -0.004       0.348
 205      -0.007    -0.004     0.012       0.218
 206      -0.001    -0.000     0.002       0.483
 207      -0.004     0.000     0.006       0.726
 208       0.003     0.002    -0.004       0.341
 209       0.166     0.159     0.260      -0.025
 210       0.003    -0.003     0.019      -0.336
 211       0.302     0.255     0.470      -0.098
 212      -0.004     0.002     0.007       0.797
 213      -0.042     0.003    -0.048      -0.945
 214      -0.003    -0.000     0.003       0.810
 215      -0.002    -0.000     0.010       0.177
 216       0.011     0.001     0.021      -0.490
 217       0.083     0.082     0.164      -0.006
 218      -0.011    -0.008     0.024       0.115
 219      -0.003     0.002     0.018       0.265
 220       0.325     0.275     0.491      -0.102
 221      -0.004     0.001     0.005       1.204
 222      -0.006    -0.006     0.014       0.061
 223       0.004     0.002    -0.005       0.350
 224       0.099     0.093     0.172      -0.035
 225      -0.012    -0.010     0.014       0.115
 226      -0.164     0.044     0.211       0.980
 227       0.020     0.015     0.037      -0.151
 228       2.266     2.249     3.162      -0.005
 229       0.004     0.001    -0.004       0.805
 230       0.006     0.006     0.024      -0.025
 231      -0.001     0.001     0.002       1.054
 232      -0.010     0.001    -0.013      -0.826
 233      -0.006     0.002     0.007       1.074
 234      -0.028     0.007    -0.040      -0.880
 235       0.010     0.002     0.020      -0.423
 236       0.086     0.085     0.168      -0.006
 237      -0.002    -0.000     0.002       0.674
 238       0.006     0.002     0.027      -0.156
 239      -0.001     0.000     0.002       0.659
 240       0.004    -0.000     0.006      -0.658
 241       0.003     0.001    -0.003       0.613
 242      -0.003    -0.001     0.013       0.147
 243      -0.005     0.003     0.006       1.364
 244      -0.007    -0.006     0.026       0.057
 245      -0.000    -0.000     0.002       0.161
 246      -0.004     0.002     0.005       1.193
 247      -0.002    -0.001     0.002       0.631
 248       0.025     0.023     0.043      -0.049
 249      -0.004     0.002     0.006       1.089
 250      -0.010    -0.007     0.035       0.084
 251      -0.006     0.003     0.007       1.274
 252      -0.045     0.008    -0.049      -1.096
 253      -0.002     0.001     0.002       1.289
 254      -0.005    -0.002     0.010       0.289
 255      -0.004     0.002     0.005       1.045
 256      -0.003    -0.003     0.018       0.032
 257       0.020     0.014     0.036      -0.156
 258       2.229     2.213     3.097      -0.005
 259      -0.010    -0.007     0.018       0.160
 260       0.002     0.001    -0.006       0.191
 261      -0.005    -0.003     0.022       0.098
 262      -0.004     0.002     0.006       1.028
 263      -0.003    -0.002     0.020       0.051
 264      -0.005    -0.001     0.019       0.221
 265       1.727     1.700     2.450      -0.011
 266      -0.011    -0.008     0.025       0.126
 267      -0.005     0.004     0.006       1.348
 268      -0.008    -0.006     0.037       0.062
 269      -0.003    -0.000     0.003       0.837
 270       0.025     0.025     0.041      -0.020
 271      -0.004     0.000     0.007       0.647
 272      -0.027     0.005    -0.040      -0.795
 273      -0.006    -0.000     0.019       0.285
 274       1.746     1.718     2.495      -0.011
 275       0.003     0.002    -0.004       0.331
 276       0.172     0.165     0.268      -0.027
 277      -0.001    -0.000     0.002       0.274
 278       0.009     0.003     0.010      -0.623
 279       0.003     0.002    -0.003       0.428
 280      -0.009     0.006    -0.011      -1.301
 281       0.004     0.003    -0.007       0.231
 282       0.090     0.083     0.170      -0.043
 283      -0.002     0.001     0.003       0.913
 284       0.002    -0.001     0.017      -0.188
 285      -0.001     0.000     0.001       0.820
 286      -0.003     0.002     0.004       1.276
 287       0.002    -0.000    -0.003       0.896
 288      -0.006    -0.002     0.006       0.552
 289      -0.005     0.003     0.006       1.234
 290       0.013     0.012     0.058      -0.021
 291      -0.002     0.000     0.002       0.887
 292       0.005    -0.004    -0.007       1.246
 293      -0.001    -0.001     0.002       0.257
 294       0.009     0.005     0.016      -0.269
 295       0.003     0.001    -0.003       0.560
 296      -0.009    -0.006     0.011       0.310
 297       0.004     0.002    -0.007       0.285
 298       0.003     0.002     0.051      -0.022
 299       0.002    -0.000    -0.002       0.813
 300      -0.006    -0.002     0.006       0.588
 301      -0.003    -0.001     0.003       0.810
 302      -0.006     0.005    -0.008      -1.422
 303       0.006    -0.001    -0.007       1.056
 304       0.554     0.554     0.784      -0.000
 305      -0.004     0.002     0.020       0.323
 306       0.267     0.209     0.446      -0.131
 307       0.003     0.001    -0.004       0.663
 308       0.025     0.021     0.054      -0.068
 309       0.004    -0.000    -0.006       0.826
 310      -0.008    -0.006     0.010       0.123
 311       0.037     0.030     0.069      -0.092
 312      -0.135    -0.042    -0.140      -0.667
 313      -0.017    -0.014     0.019       0.126
 314       0.008     0.000    -0.008       0.900
 315      -0.062    -0.020    -0.069      -0.612
 316       0.004    -0.000    -0.004       0.939
 317      -0.006    -0.006     0.009       0.026
 318      -0.007    -0.002     0.007       0.751
 319       0.193     0.189     0.320      -0.013
 320      -0.009    -0.006     0.023       0.148
 321      -1.171    -0.941    -1.231      -0.187
 322       0.006    -0.001    -0.008       0.881
 323       0.567     0.565     0.802      -0.002
 324      -0.002    -0.001     0.002       0.393
 325      -0.009     0.008    -0.012      -1.311
 326       0.003    -0.002     0.004      -1.089
 327      -0.003    -0.000     0.018       0.187
 328       0.008    -0.000    -0.009       0.864
 329       0.175     0.173     0.317      -0.008
 330       0.002    -0.001    -0.005       0.538
 331      -0.017     0.004    -0.023      -0.955
 332      -0.001    -0.000     0.001       0.472
 333       0.004    -0.000    -0.005       0.775
 334      -0.004     0.003     0.006       1.172
 335      -0.005    -0.005     0.015       0.019
 336       0.004     0.001    -0.005       0.600
 337      -0.008    -0.007     0.010       0.117
 338       0.001     0.000    -0.001       0.288
 339       0.004    -0.001     0.005      -1.086
 340       0.002    -0.000     0.004      -0.569
 341       0.095     0.092     0.134      -0.025
 342       0.007     0.001    -0.008       0.810
 343      -0.061    -0.018    -0.067      -0.647
 344       0.005     0.001    -0.006       0.635
 345       0.014    -0.013    -0.020       1.306
 346      -0.002    -0.001     0.002       0.498
 347       0.004     0.001     0.011      -0.261
 348       0.003     0.000    -0.006       0.420
 349      -0.017     0.008    -0.020      -1.238
 350       0.012    -0.012    -0.016       1.582
 351      -0.380     0.161    -0.407      -1.330
 352      -0.003     0.001     0.020       0.186
 353       0.284     0.218     0.437      -0.150
 354       0.004     0.001    -0.004       0.716
 355      -0.008     0.007    -0.009      -1.679
 356       0.003    -0.000    -0.007       0.379
 357      -0.021     0.006    -0.022      -1.194
 358      -0.009    -0.006     0.023       0.097
 359      -1.143    -0.921    -1.201      -0.185
 360      -0.012     0.012    -0.016      -1.597
 361      -0.407     0.138    -0.435      -1.253
 362       0.004     0.001    -0.005       0.581
 363      -0.011    -0.010     0.012       0.055
 364      -0.002     0.001     0.004       1.011
 365       0.035     0.032     0.061      -0.056
 366       0.008    -0.004    -0.009       1.303
 367      -0.089    -0.057    -0.109      -0.294
 368       0.038     0.032     0.071      -0.078
 369      -0.139    -0.044    -0.144      -0.660
 370       0.003    -0.001     0.005      -0.750
 371       0.099     0.098     0.143      -0.008
 372      -0.001    -0.000     0.001       0.088
 373      -0.004     0.000     0.005       0.889
 374       0.006    -0.002     0.008      -0.956
 375      -0.002    -0.001     0.023       0.052
 376       0.002    -0.000    -0.007       0.346
 377      -0.019     0.007    -0.022      -1.179
 378      -0.001    -0.001     0.001       0.242
 379       0.003    -0.003     0.007      -0.759
 380       0.002     0.001    -0.003       0.128
 381       0.001     0.001    -0.002       0.122
 382      -0.005    -0.002     0.008       0.393
 383      -0.004    -0.000     0.007       0.535
 384       0.008    -0.004    -0.009       1.436
 385       0.006    -0.003    -0.008       1.171
 386      -0.002     0.001     0.004       0.833
 387       0.002    -0.000    -0.002       1.033
 388      -0.003    -0.001     0.003       0.568
 389      -0.001    -0.000     0.004       0.349
 390      -0.001     0.001     0.022       0.073
 391      -0.007    -0.003     0.008       0.546
 392      -0.008    -0.005     0.011       0.293
 393      -0.007    -0.002     0.008       0.624
 394      -0.003    -0.000     0.003       0.937
 395       0.002    -0.000    -0.002       1.070
 396      -0.005    -0.004     0.007       0.138
 397       0.005    -0.003    -0.006       1.470
 398      -0.058    -0.018    -0.064      -0.625
 399      -0.014    -0.011     0.021       0.151
 400      -0.018    -0.016     0.028       0.061
 401      -0.013    -0.010     0.017       0.137
 402      -0.004    -0.003     0.009       0.114
 403       0.005    -0.003    -0.005       1.630
 404      -0.006    -0.002     0.012       0.354
 405       0.007    -0.004    -0.008       1.304
 406      -0.087     0.003    -0.098      -0.908
 407       0.212     0.207     0.351      -0.016
 408       0.066     0.012     0.161      -0.332
 409      -0.031    -0.025     0.033       0.172
 410       0.002    -0.001     0.023      -0.108
 411      -0.008    -0.004     0.008       0.536
 412      -0.007    -0.005     0.007       0.346
 413       0.006    -0.003    -0.006       1.379
 414       0.029    -0.025    -0.029       1.838
 415      -0.021     0.013    -0.022      -1.543
 416      -0.087     0.004    -0.099      -0.919
 417       0.222     0.217     0.365      -0.015
 418       0.008    -0.008    -0.012       1.389
 419      -0.002     0.002     0.014       0.283
 420      -0.004    -0.002     0.004       0.504
 421      -0.003    -0.002     0.003       0.396
 422      -0.010     0.009    -0.012      -1.606
 423      -0.008     0.006    -0.011      -1.289
 424      -0.018    -0.013     0.019       0.238
 425      -0.019     0.003    -0.024      -0.908
 426      -0.005    -0.003     0.006       0.322
 427       0.004    -0.004    -0.005       1.606
 428      -0.003    -0.001     0.005       0.405
 429      -0.003    -0.001     0.003       0.511
 430      -0.007    -0.003     0.012       0.391
 431      -0.007    -0.001     0.009       0.691
 432      -0.003    -0.001     0.006       0.369
 433       0.004    -0.001    -0.004       1.334
 434       0.002     0.000    -0.003       0.628
 435       0.002     0.000    -0.002       0.781
 436      -0.008     0.007    -0.010      -1.485
 437       0.001    -0.000     0.013      -0.109
 438      -0.005    -0.003     0.037       0.064
 439       0.012    -0.008    -0.015       1.421
 440      -0.005    -0.004     0.010       0.135
 441      -0.005    -0.003     0.006       0.242
 442      -0.003    -0.001     0.004       0.490
 443      -0.003    -0.001     0.003       0.429
 444      -0.017    -0.012     0.018       0.235
 445      -0.017     0.004    -0.021      -0.981
 446       0.066     0.012     0.162      -0.333
 447      -0.031    -0.026     0.032       0.162
 448      -0.006    -0.003     0.034       0.081
 449       0.012    -0.009    -0.013       1.687
 450      -0.001     0.000     0.010       0.188
 451       0.005    -0.002    -0.005       1.426
 452      -0.017    -0.013     0.019       0.198
 453      -0.019     0.003    -0.022      -0.981
 454      -0.104     0.026    -0.122      -1.060
 455      -0.087    -0.051    -0.108      -0.333
 456      -0.060    -0.019    -0.067      -0.611
 457      -0.015    -0.011     0.021       0.160
 458      -0.003    -0.000     0.011       0.262
 459      -0.006    -0.002     0.007       0.577
 460       0.008    -0.008    -0.010       1.574
 461       0.001    -0.001     0.014      -0.108
 462      -0.029    -0.025     0.030       0.162
 463      -0.021     0.013    -0.022      -1.532
 464      -0.017    -0.013     0.017       0.208
 465      -0.017     0.005    -0.021      -1.021
 466       0.005    -0.003    -0.005       1.647
 467      -0.002    -0.000     0.006       0.339
 468      -0.004    -0.002     0.005       0.434
 469      -0.003    -0.002     0.004       0.326
 470       0.010    -0.007    -0.013       1.348
 471      -0.005     0.001     0.014       0.396
 472      -0.004    -0.003     0.010       0.122
 473       0.005    -0.004    -0.006       1.549
 474       0.003    -0.000    -0.003       1.161
 475       0.002    -0.001    -0.002       1.216
 476       0.001    -0.000    -0.002       1.203
 477       0.003    -0.000    -0.004       0.860
 478      -0.006     0.001     0.006       1.194
 479      -0.008    -0.005     0.012       0.213
 480       0.004    -0.000    -0.004       0.921
 481      -0.007    -0.005     0.008       0.240
 482       0.001    -0.000    -0.002       1.020
 483       0.002    -0.000    -0.004       0.615
 484       0.002    -0.001    -0.002       1.567
 485      -0.005    -0.003     0.006       0.314
 486      -0.006     0.001     0.009       0.803
 487       0.014    -0.012    -0.014       1.826
 488      -0.004    -0.000     0.004       0.901
 489      -0.007    -0.005     0.009       0.210
 490      -0.001    -0.000     0.002       0.688
 491       0.003     0.000    -0.004       0.710
 492      -0.005    -0.001     0.006       0.669
 493      -0.018     0.004    -0.022      -1.022
 494       0.007    -0.000     0.032      -0.216
 495      -0.088     0.004    -0.094      -0.974
 496      -0.006    -0.002     0.010       0.372
 497      -0.019     0.017    -0.019      -1.847
 498      -0.003    -0.001     0.004       0.521
 499      -0.004    -0.003     0.007       0.211
 500       0.004    -0.004     0.014      -0.544
 501      -0.014    -0.012     0.022       0.089
 502       0.023    -0.021    -0.024       1.856
 503      -1.057    -0.827    -1.120      -0.206
 504       0.007     0.001     0.033      -0.170
 505      -0.087     0.005    -0.094      -0.980
 506      -0.004     0.001     0.007       0.750
 507      -0.006    -0.005     0.011       0.124
 508      -0.005    -0.000     0.007       0.638
 509      -0.020     0.004    -0.023      -1.062
 510      -0.016    -0.014     0.019       0.067
 511      -0.135    -0.049    -0.167      -0.517
 512       0.012    -0.010    -0.015       1.458
 513      -0.129    -0.035    -0.137      -0.688
 514       0.004    -0.001    -0.005       0.963
 515      -0.007    -0.006     0.009       0.156
 516      -0.002    -0.001     0.003       0.461
 517      -0.006    -0.004     0.007       0.307
 518      -0.005     0.001     0.014       0.457
 519      -0.020     0.014    -0.024      -1.457
 520       0.004    -0.001     0.016      -0.364
 521      -0.016    -0.016     0.018       0.013
 522      -0.002    -0.001     0.003       0.448
 523      -0.004     0.004    -0.006      -1.290
 524       0.001    -0.000    -0.002       0.950
 525       0.003     0.000    -0.003       0.680
 526      -0.003     0.001     0.005       0.719
 527      -0.006    -0.004     0.008       0.204
 528       0.006     0.001    -0.006       0.834
 529      -0.010    -0.007     0.011       0.261
 530       0.001    -0.000    -0.002       1.145
 531       0.003    -0.000    -0.004       0.792
 532      -0.002    -0.001     0.003       0.379
 533       0.004    -0.004    -0.005       1.527
 534       0.005    -0.004    -0.008       1.073
 535      -0.013    -0.012     0.020       0.046
 536      -0.007    -0.000     0.011       0.626
 537       0.019    -0.018    -0.020       1.822
 538      -0.002    -0.001     0.003       0.318
 539      -0.005    -0.003     0.007       0.315
 540      -0.004     0.000     0.005       0.862
 541      -0.005    -0.004     0.010       0.066
 542       0.012    -0.010    -0.015       1.452
 543      -0.126    -0.034    -0.134      -0.691
 544      -0.017     0.015    -0.020      -1.669
 545      -0.089     0.033    -0.107      -1.142
 546      -0.005    -0.000     0.008       0.554
 547       0.012    -0.012    -0.013       1.927
 548       0.005    -0.000    -0.005       1.027
 549      -0.008    -0.006     0.010       0.150
 550      -0.013    -0.010     0.015       0.254
 551      -0.150    -0.059    -0.155      -0.586
 552       0.023    -0.021    -0.024       1.859
 553      -1.082    -0.847    -1.146      -0.205
 554       0.005    -0.003    -0.009       0.864
 555      -0.016    -0.013     0.021       0.112
 556      -0.003    -0.001     0.004       0.686
 557      -0.006    -0.004     0.006       0.213
 558      -0.005    -0.002     0.012       0.314
 559      -0.018     0.014    -0.022      -1.486
 560      -0.014    -0.009     0.015       0.329
 561      -0.153    -0.059    -0.157      -0.602
 562      -0.005    -0.001     0.006       0.694
 563      -0.016     0.006    -0.020      -1.101
 564      -0.001    -0.000     0.002       0.667
 565       0.003     0.000    -0.003       0.752
 566       0.004    -0.000    -0.004       0.974
 567       0.007    -0.006    -0.009       1.594
 568      -0.007     0.001     0.008       0.906
 569      -0.021     0.006    -0.025      -1.065
 570      -0.002    -0.001     0.002       0.424
 571       0.006    -0.004    -0.006       1.539
 572      -0.637    -0.560    -0.756      -0.102
 573       0.241     0.036    -0.397       0.517
 574      14.769    14.724    25.627      -0.002
 575      15.043    14.998    26.239      -0.002
 576      -0.624    -0.532    -0.738      -0.126
 ---------------------------------------------------------------------



--------------------------------------------------------------------------------------------------------


     LOOP+:  cpu time 1257.0538: real time 1260.6657
    4ORBIT:  cpu time    0.0000: real time    0.0000

 total amount of memory used by VASP MPI-rank0   238705. kBytes
=======================================================================

   base      :      30000. kBytes
   nonlr-proj:       9228. kBytes
   fftplans  :      15014. kBytes
   grid      :      46644. kBytes
   one-center:        294. kBytes
   wavefun   :     137525. kBytes
 
  
  
 General timing and accounting informations for this job:
 ========================================================
  
                  Total CPU time used (sec):     1285.712
                            User time (sec):     1284.825
                          System time (sec):        0.887
                         Elapsed time (sec):     1289.945
  
                   Maximum memory used (kb):      449216.
                   Average memory used (kb):          N/A
  
                          Minor page faults:       119227
                          Major page faults:            0
                 Voluntary context switches:        13301
