 vasp.6.2.0 18Jan21 (build Apr 30 2021 19:00:08) gamma-only                     
  
 executed on             LinuxIFC date 2022.12.30  17:48:19
 running on    1 total cores
 distrk:  each k-point on    1 cores,    1 groups
 distr:  one band on NCORE=   1 cores,    1 groups


--------------------------------------------------------------------------------------------------------


 INCAR:
   SYSTEM = Diamond
   PREC = Normal
   ISTART = 0
   ICHARG = 11
   ISPIN = 2
   MAGMOM = 572*0.0 1*2.0 2*2.0 1*3
   NPAR = 4
   NELECT = 2303
   LHYPERFINE = T
   LEFG = T
   ENCUT = 700
   NELM = 1000
   NELMIN = 4
   EDIFF = 1E-06
   LREAL = Auto
   ALGO = Normal
   EDIFFG = -1E-02
   NSW = 0
   IBRION = 2
   ISIF = 2
   ISYM = 2
   POTIM = 0.5
   ISMEAR = 0
   SIGMA = 0.05
   NEDOS = 1000
   LWAVE = F
   LCHARG = F
   LVHAR = F
   LELF = F

 POTCAR:    PAW_PBE C 08Apr2002                   
 POTCAR:    PAW_PBE H 15Jun2001                   
 POTCAR:    PAW_PBE C 08Apr2002                   
 POTCAR:    PAW_PBE N 08Apr2002                   
 -----------------------------------------------------------------------------
|                                                                             |
|           W    W    AA    RRRRR   N    N  II  N    N   GGGG   !!!           |
|           W    W   A  A   R    R  NN   N  II  NN   N  G    G  !!!           |
|           W    W  A    A  R    R  N N  N  II  N N  N  G       !!!           |
|           W WW W  AAAAAA  RRRRR   N  N N  II  N  N N  G  GGG   !            |
|           WW  WW  A    A  R   R   N   NN  II  N   NN  G    G                |
|           W    W  A    A  R    R  N    N  II  N    N   GGGG   !!!           |
|                                                                             |
|     The value NPAR = 4 specified in the INCAR file was overwritten,         |
|     because it was not compatible with the 1 processes available:           |
|     NPAR = 1                                                                |
|     was used instead, please check that this makes sense for your           |
|     machine.                                                                |
|                                                                             |
 -----------------------------------------------------------------------------

 POTCAR:    PAW_PBE C 08Apr2002                   
   VRHFIN =C: s2p2                                                                                  
   LEXCH  = PE                                                                                      
   EATOM  =   147.1560 eV,   10.8157 Ry                                                             
                                                                                                    
   TITEL  = PAW_PBE C 08Apr2002                                                                     
   LULTRA =        F    use ultrasoft PP ?                                                          
   IUNSCR =        1    unscreen: 0-lin 1-nonlin 2-no                                               
   RPACOR =    1.200    partial core radius                                                         
   POMASS =   12.011; ZVAL   =    4.000    mass and valenz                                          
   RCORE  =    1.500    outmost cutoff radius                                                       
   RWIGS  =    1.630; RWIGS  =    0.863    wigner-seitz radius (au A)                               
   ENMAX  =  400.000; ENMIN  =  300.000 eV                                                          
   ICORE  =        2    local potential                                                             
   LCOR   =        T    correct aug charges                                                         
   LPAW   =        T    paw PP                                                                      
   EAUG   =  644.873                                                                                
   DEXC   =    0.000                                                                                
   RMAX   =    1.529    core radius for proj-oper                                                   
   RAUG   =    1.300    factor for augmentation sphere                                              
   RDEP   =    1.501    radius for radial grids                                                     
   RDEPT  =    1.300    core radius for aug-charge                                                  
                                                                                                    
   Atomic configuration                                                                             
    4 entries                                                                                       
     n  l   j            E        occ.                                                              
     1  0  0.50      -273.3789   2.0000                                                             
     2  0  0.50       -13.7508   2.0000                                                             
     2  1  0.50        -5.2854   2.0000                                                             
     3  2  1.50        -5.4423   0.0000                                                             
   Description                                                                                      
     l       E           TYP  RCUT    TYP  RCUT                                                     
     0    -13.7508458     23  1.200                                                                 
     0     -8.2022199     23  1.200                                                                 
     1     -5.2854383     23  1.500                                                                 
     1     34.0145650     23  1.500                                                                 
     2     -5.4423304      7  1.500                                                                 
  local pseudopotential read in
  partial core-charges read in
  partial kinetic energy density read in
  atomic valenz-charges read in
  non local Contribution for L=           0  read in
    real space projection operators read in
  non local Contribution for L=           0  read in
    real space projection operators read in
  non local Contribution for L=           1  read in
    real space projection operators read in
  non local Contribution for L=           1  read in
    real space projection operators read in
    PAW grid and wavefunctions read in
 
   number of l-projection  operators is LMAX  =           4
   number of lm-projection operators is LMMAX =           8
 
 POTCAR:    PAW_PBE H 15Jun2001                   
   VRHFIN =H: ultrasoft test                                                                        
   LEXCH  = PE                                                                                      
   EATOM  =    12.4884 eV,    0.9179 Ry                                                             
                                                                                                    
   TITEL  = PAW_PBE H 15Jun2001                                                                     
   LULTRA =        F    use ultrasoft PP ?                                                          
   IUNSCR =        0    unscreen: 0-lin 1-nonlin 2-no                                               
   RPACOR =    0.000    partial core radius                                                         
   POMASS =    1.000; ZVAL   =    1.000    mass and valenz                                          
   RCORE  =    1.100    outmost cutoff radius                                                       
   RWIGS  =    0.700; RWIGS  =    0.370    wigner-seitz radius (au A)                               
   ENMAX  =  250.000; ENMIN  =  200.000 eV                                                          
   RCLOC  =    0.701    cutoff for local pot                                                        
   LCOR   =        T    correct aug charges                                                         
   LPAW   =        T    paw PP                                                                      
   EAUG   =  400.000                                                                                
   RMAX   =    1.123    core radius for proj-oper                                                   
   RAUG   =    1.200    factor for augmentation sphere                                              
   RDEP   =    1.112    radius for radial grids                                                     
   RDEPT  =    0.926    core radius for aug-charge                                                  
                                                                                                    
   Atomic configuration                                                                             
    2 entries                                                                                       
     n  l   j            E        occ.                                                              
     1  0  0.50        -6.4927   1.0000                                                             
     2  1  0.50        -3.4015   0.0000                                                             
   Description                                                                                      
     l       E           TYP  RCUT    TYP  RCUT                                                     
     0     -6.4927494     23  1.100                                                                 
     0      6.8029130     23  1.100                                                                 
     1     -4.0817478     23  1.100                                                                 
  local pseudopotential read in
  atomic valenz-charges read in
  non local Contribution for L=           0  read in
    real space projection operators read in
  non local Contribution for L=           0  read in
    real space projection operators read in
  non local Contribution for L=           1  read in
    real space projection operators read in
    PAW grid and wavefunctions read in
 
   number of l-projection  operators is LMAX  =           3
   number of lm-projection operators is LMMAX =           5
 
 POTCAR:    PAW_PBE C 08Apr2002                   
   VRHFIN =C: s2p2                                                                                  
   LEXCH  = PE                                                                                      
   EATOM  =   147.1560 eV,   10.8157 Ry                                                             
                                                                                                    
   TITEL  = PAW_PBE C 08Apr2002                                                                     
   LULTRA =        F    use ultrasoft PP ?                                                          
   IUNSCR =        1    unscreen: 0-lin 1-nonlin 2-no                                               
   RPACOR =    1.200    partial core radius                                                         
   POMASS =   12.011; ZVAL   =    4.000    mass and valenz                                          
   RCORE  =    1.500    outmost cutoff radius                                                       
   RWIGS  =    1.630; RWIGS  =    0.863    wigner-seitz radius (au A)                               
   ENMAX  =  400.000; ENMIN  =  300.000 eV                                                          
   ICORE  =        2    local potential                                                             
   LCOR   =        T    correct aug charges                                                         
   LPAW   =        T    paw PP                                                                      
   EAUG   =  644.873                                                                                
   DEXC   =    0.000                                                                                
   RMAX   =    1.529    core radius for proj-oper                                                   
   RAUG   =    1.300    factor for augmentation sphere                                              
   RDEP   =    1.501    radius for radial grids                                                     
   RDEPT  =    1.300    core radius for aug-charge                                                  
                                                                                                    
   Atomic configuration                                                                             
    4 entries                                                                                       
     n  l   j            E        occ.                                                              
     1  0  0.50      -273.3789   2.0000                                                             
     2  0  0.50       -13.7508   2.0000                                                             
     2  1  0.50        -5.2854   2.0000                                                             
     3  2  1.50        -5.4423   0.0000                                                             
   Description                                                                                      
     l       E           TYP  RCUT    TYP  RCUT                                                     
     0    -13.7508458     23  1.200                                                                 
     0     -8.2022199     23  1.200                                                                 
     1     -5.2854383     23  1.500                                                                 
     1     34.0145650     23  1.500                                                                 
     2     -5.4423304      7  1.500                                                                 
  local pseudopotential read in
  partial core-charges read in
  partial kinetic energy density read in
  atomic valenz-charges read in
  non local Contribution for L=           0  read in
    real space projection operators read in
  non local Contribution for L=           0  read in
    real space projection operators read in
  non local Contribution for L=           1  read in
    real space projection operators read in
  non local Contribution for L=           1  read in
    real space projection operators read in
    PAW grid and wavefunctions read in
 
   number of l-projection  operators is LMAX  =           4
   number of lm-projection operators is LMMAX =           8
 
 POTCAR:    PAW_PBE N 08Apr2002                   
   VRHFIN =N: s2p3                                                                                  
   LEXCH  = PE                                                                                      
   EATOM  =   264.5486 eV,   19.4438 Ry                                                             
                                                                                                    
   TITEL  = PAW_PBE N 08Apr2002                                                                     
   LULTRA =        F    use ultrasoft PP ?                                                          
   IUNSCR =        1    unscreen: 0-lin 1-nonlin 2-no                                               
   RPACOR =    1.200    partial core radius                                                         
   POMASS =   14.001; ZVAL   =    5.000    mass and valenz                                          
   RCORE  =    1.500    outmost cutoff radius                                                       
   RWIGS  =    1.400; RWIGS  =    0.741    wigner-seitz radius (au A)                               
   ENMAX  =  400.000; ENMIN  =  300.000 eV                                                          
   ICORE  =        2    local potential                                                             
   LCOR   =        T    correct aug charges                                                         
   LPAW   =        T    paw PP                                                                      
   EAUG   =  627.112                                                                                
   DEXC   =    0.000                                                                                
   RMAX   =    1.529    core radius for proj-oper                                                   
   RAUG   =    1.300    factor for augmentation sphere                                              
   RDEP   =    1.514    radius for radial grids                                                     
   RDEPT  =    1.338    core radius for aug-charge                                                  
                                                                                                    
   Atomic configuration                                                                             
    4 entries                                                                                       
     n  l   j            E        occ.                                                              
     1  0  0.50      -384.7179   2.0000                                                             
     2  0  0.50       -18.5828   2.0000                                                             
     2  1  0.50        -7.0898   3.0000                                                             
     3  2  1.50        -6.8029   0.0000                                                             
   Description                                                                                      
     l       E           TYP  RCUT    TYP  RCUT                                                     
     0    -18.5828119     23  1.200                                                                 
     0    -13.5018863     23  1.200                                                                 
     1     -7.0897853     23  1.500                                                                 
     1      9.5240782     23  1.500                                                                 
     2     -6.8029130      7  1.500                                                                 
  local pseudopotential read in
  partial core-charges read in
  partial kinetic energy density read in
  atomic valenz-charges read in
  non local Contribution for L=           0  read in
    real space projection operators read in
  non local Contribution for L=           0  read in
    real space projection operators read in
  non local Contribution for L=           1  read in
    real space projection operators read in
  non local Contribution for L=           1  read in
    real space projection operators read in
    PAW grid and wavefunctions read in
 
   number of l-projection  operators is LMAX  =           4
   number of lm-projection operators is LMMAX =           8
 
 Optimization of the real space projectors (new method)

 maximal supplied QI-value         = 25.13
 optimisation between [QCUT,QGAM] = [ 13.32, 26.89] = [ 49.69,202.52] Ry 
 Optimized for a Real-space Cutoff    1.01 Angstroem

   l    n(q)    QCUT    max X(q) W(low)/X(q) W(high)/X(q)  e(spline) 
   0      8    13.321   115.676    0.29E-03    0.42E-03    0.11E-06
   0      8    13.321    87.132    0.29E-03    0.42E-03    0.11E-06
   1      8    13.321     4.429    0.39E-03    0.33E-03    0.98E-07
   1      8    13.321     2.733    0.30E-03    0.26E-03    0.97E-07
 Optimization of the real space projectors (new method)

 maximal supplied QI-value         = 34.20
 optimisation between [QCUT,QGAM] = [ 13.34, 27.02] = [ 49.83,204.46] Ry 
 Optimized for a Real-space Cutoff    0.93 Angstroem

   l    n(q)    QCUT    max X(q) W(low)/X(q) W(high)/X(q)  e(spline) 
   0      7    13.340    19.460    0.47E-03    0.72E-04    0.17E-06
   0      7    13.340    12.209    0.45E-03    0.63E-04    0.16E-06
   1      7    13.340     4.655    0.21E-03    0.61E-03    0.12E-06
 Optimization of the real space projectors (new method)

 maximal supplied QI-value         = 25.13
 optimisation between [QCUT,QGAM] = [ 13.32, 26.89] = [ 49.69,202.52] Ry 
 Optimized for a Real-space Cutoff    1.01 Angstroem

   l    n(q)    QCUT    max X(q) W(low)/X(q) W(high)/X(q)  e(spline) 
   0      8    13.321   115.676    0.29E-03    0.42E-03    0.11E-06
   0      8    13.321    87.132    0.29E-03    0.42E-03    0.11E-06
   1      8    13.321     4.429    0.39E-03    0.33E-03    0.98E-07
   1      8    13.321     2.733    0.30E-03    0.26E-03    0.97E-07
 Optimization of the real space projectors (new method)

 maximal supplied QI-value         = 25.13
 optimisation between [QCUT,QGAM] = [ 13.32, 26.89] = [ 49.69,202.52] Ry 
 Optimized for a Real-space Cutoff    1.01 Angstroem

   l    n(q)    QCUT    max X(q) W(low)/X(q) W(high)/X(q)  e(spline) 
   0      8    13.321    79.467    0.28E-03    0.38E-03    0.11E-06
   0      8    13.321    66.151    0.27E-03    0.38E-03    0.11E-06
   1      8    13.321    23.070    0.40E-03    0.78E-03    0.29E-06
   1      8    13.321    16.668    0.40E-03    0.79E-03    0.30E-06
  PAW_PBE C 08Apr2002                   :
 energy of atom  1       EATOM= -147.1560
 kinetic energy error for atom=    0.0032 (will be added to EATOM!!)
  PAW_PBE H 15Jun2001                   :
 energy of atom  2       EATOM=  -12.4884
 kinetic energy error for atom=    0.0002 (will be added to EATOM!!)
  PAW_PBE C 08Apr2002                   :
 energy of atom  3       EATOM= -147.1560
 kinetic energy error for atom=    0.0032 (will be added to EATOM!!)
  PAW_PBE N 08Apr2002                   :
 energy of atom  4       EATOM= -264.5486
 kinetic energy error for atom=    0.0061 (will be added to EATOM!!)
 
 
 POSCAR: Autosave
  positions in direct lattice
  velocities in cartesian coordinates
 exchange correlation table for  LEXCH =        8
   RHO(1)=    0.500       N(1)  =     2000
   RHO(2)=  100.500       N(2)  =     4000
 


--------------------------------------------------------------------------------------------------------


 ion  position               nearest neighbor table
   1  0.000  1.000  1.000- 288 1.55 475 1.55 384 1.55 437 1.55
   2  0.000  1.000  0.500- 474 1.55 289 1.55 383 1.55 436 1.55
   3  1.000  0.250  1.000- 290 1.55 469 1.55 431 1.55 386 1.55
   4  1.000  0.250  0.500- 468 1.55 291 1.55 385 1.55 430 1.55
   5  0.000  0.500  1.000- 292 1.55 433 1.55 388 1.55 471 1.55
   6  0.000  0.500  0.500- 432 1.54 470 1.54 293 1.55 387 1.55
   7  0.000  0.750  0.000- 294 1.55 390 1.55 473 1.55 435 1.55
   8  0.000  0.750  0.500- 472 1.55 295 1.55 389 1.55 434 1.55
   9  0.167  1.000  0.000- 296 1.55 437 1.55 392 1.55 445 1.55
  10  0.167  1.000  0.500- 391 1.55 436 1.55 297 1.55 444 1.55
  11  0.167  0.250  1.000- 298 1.55 431 1.55 439 1.55 394 1.55
  12  0.166  0.250  0.500- 430 1.54 393 1.55 299 1.55 438 1.55
  13  0.167  0.500  0.000- 300 1.55 441 1.55 433 1.55 396 1.55
  14  0.166  0.500  0.500- 440 1.54 432 1.54 301 1.55 395 1.55
  15  0.167  0.750  0.000- 435 1.55 443 1.55 302 1.55 398 1.55
  16  0.167  0.750  0.500- 303 1.55 434 1.55 397 1.55 442 1.55
  17  0.333  0.000  1.000- 304 1.55 452 1.55 400 1.55 445 1.55
  18  0.333  0.000  0.500- 305 1.55 451 1.55 399 1.55 444 1.55
  19  0.333  0.250  0.000- 306 1.55 402 1.55 447 1.55 439 1.55
  20  0.333  0.250  0.500- 401 1.54 438 1.54 307 1.55 446 1.55
  21  0.333  0.500  0.000- 308 1.55 448 1.55 404 1.55 441 1.55
  22  0.333  0.498  0.498- 576 1.48 440 1.54 403 1.56 309 1.56
  23  0.333  0.750  0.000- 450 1.55 310 1.55 443 1.55 406 1.55
  24  0.334  0.750  0.500- 449 1.54 311 1.55 405 1.55 442 1.55
  25  0.500  0.000  1.000- 312 1.55 408 1.55 459 1.55 452 1.55
  26  0.500  0.000  0.500- 313 1.55 458 1.55 407 1.55 451 1.55
  27  0.500  0.250  0.000- 410 1.54 314 1.55 454 1.55 447 1.55
  28  0.500  0.251  0.500- 315 1.54 446 1.55 453 1.55 409 1.56
  29  0.500  0.500  0.001- 316 1.55 411 1.55 455 1.55 448 1.55
  30  0.500  0.750  1.000- 317 1.54 413 1.55 450 1.55 457 1.55
  31  0.500  0.750  0.500- 318 1.55 412 1.55 456 1.55 449 1.55
  32  0.667  0.000  1.000- 319 1.55 415 1.55 459 1.55 467 1.55
  33  0.667  0.000  0.500- 320 1.55 458 1.55 414 1.55 466 1.55
  34  0.667  0.250  0.000- 321 1.55 417 1.55 454 1.55 461 1.55
  35  0.667  0.250  0.500- 416 1.54 322 1.55 453 1.55 460 1.55
  36  0.667  0.500  0.000- 323 1.54 455 1.55 463 1.55 419 1.55
  37  0.667  0.500  0.499- 575 1.49 418 1.55 462 1.55 324 1.55
  38  0.667  0.750  0.000- 325 1.55 457 1.55 421 1.55 465 1.55
  39  0.667  0.751  0.500- 456 1.54 420 1.54 326 1.55 464 1.55
  40  0.833  0.000  0.000- 327 1.55 423 1.55 467 1.55 475 1.55
  41  0.833  0.000  0.500- 466 1.55 422 1.55 328 1.55 474 1.55
  42  0.833  0.250  1.000- 329 1.55 469 1.55 461 1.55 425 1.55
  43  0.833  0.250  0.500- 330 1.55 460 1.55 468 1.55 424 1.55
  44  0.833  0.500  0.000- 331 1.55 471 1.55 463 1.55 427 1.55
  45  0.834  0.500  0.500- 462 1.54 470 1.54 332 1.55 426 1.55
  46  0.833  0.750  0.000- 333 1.55 465 1.55 429 1.55 473 1.55
  47  0.833  0.750  0.500- 464 1.54 334 1.55 428 1.55 472 1.55
  48  0.083  0.125  1.000- 335 1.55 384 1.55 431 1.55 392 1.55
  49  0.083  0.125  0.500- 383 1.55 430 1.55 336 1.55 391 1.55
  50  0.083  0.375  1.000- 337 1.55 386 1.55 394 1.55 433 1.55
  51  0.083  0.375  0.500- 385 1.54 393 1.55 338 1.55 432 1.55
  52  0.083  0.625  0.000- 388 1.55 435 1.55 339 1.55 396 1.55
  53  0.084  0.625  0.500- 340 1.55 434 1.55 387 1.55 395 1.55
  54  0.083  0.875  0.000- 341 1.55 390 1.55 437 1.55 398 1.55
  55  0.083  0.875  0.500- 389 1.55 342 1.55 436 1.55 397 1.55
  56  0.250  0.125  1.000- 343 1.55 439 1.55 392 1.55 400 1.55
  57  0.250  0.125  0.500- 438 1.54 391 1.55 344 1.55 399 1.55
  58  0.250  0.375  1.000- 345 1.54 394 1.55 402 1.55 441 1.55
  59  0.249  0.375  0.500- 393 1.54 346 1.55 401 1.55 440 1.55
  60  0.250  0.625  0.000- 404 1.54 347 1.54 396 1.55 443 1.55
  61  0.251  0.624  0.500- 348 1.54 395 1.55 442 1.55 403 1.56
  62  0.250  0.875  0.000- 349 1.55 406 1.55 398 1.55 445 1.55
  63  0.250  0.875  0.500- 405 1.55 350 1.55 444 1.55 397 1.55
  64  0.417  0.125  1.000- 447 1.55 408 1.55 351 1.55 400 1.55
  65  0.417  0.125  0.500- 352 1.55 407 1.55 446 1.55 399 1.55
  66  0.417  0.375  0.001- 353 1.55 448 1.55 410 1.55 402 1.55
  67  0.415  0.376  0.498- 576 1.48 401 1.54 409 1.56 354 1.56
  68  0.417  0.625  0.001- 411 1.55 355 1.55 404 1.55 450 1.55
  69  0.419  0.624  0.499- 574 1.51 403 1.55 356 1.55 449 1.57
  70  0.417  0.875  1.000- 357 1.55 452 1.55 413 1.55 406 1.55
  71  0.417  0.875  0.500- 358 1.55 412 1.55 451 1.55 405 1.55
  72  0.583  0.125  0.000- 454 1.55 359 1.55 408 1.55 415 1.55
  73  0.583  0.125  0.500- 360 1.55 407 1.55 414 1.55 453 1.55
  74  0.583  0.375  0.001- 455 1.55 361 1.55 410 1.55 417 1.55
  75  0.583  0.377  0.499- 575 1.51 409 1.55 362 1.55 416 1.57
  76  0.583  0.625  0.000- 363 1.54 457 1.55 411 1.55 419 1.55
  77  0.583  0.625  0.499- 574 1.49 418 1.55 456 1.55 364 1.55
  78  0.583  0.875  1.000- 365 1.55 459 1.55 413 1.55 421 1.55
  79  0.583  0.875  0.500- 458 1.55 366 1.55 412 1.55 420 1.55
  80  0.750  0.125  0.000- 367 1.55 461 1.55 415 1.55 423 1.55
  81  0.750  0.125  0.500- 460 1.55 368 1.55 414 1.55 422 1.55
  82  0.750  0.375  1.000- 369 1.54 425 1.55 417 1.55 463 1.55
  83  0.750  0.375  0.500- 370 1.55 424 1.55 462 1.55 416 1.55
  84  0.750  0.625  0.000- 419 1.54 371 1.54 465 1.55 427 1.55
  85  0.750  0.625  0.500- 418 1.54 372 1.55 426 1.55 464 1.55
  86  0.750  0.875  1.000- 373 1.55 467 1.55 421 1.55 429 1.55
  87  0.750  0.875  0.500- 420 1.54 466 1.54 374 1.55 428 1.55
  88  0.917  0.125  1.000- 375 1.55 423 1.55 469 1.55 384 1.55
  89  0.917  0.125  0.500- 422 1.55 376 1.55 468 1.55 383 1.55
  90  0.917  0.375  1.000- 377 1.55 386 1.55 471 1.55 425 1.55
  91  0.917  0.375  0.500- 385 1.55 378 1.55 424 1.55 470 1.55
  92  0.917  0.625  0.000- 379 1.55 427 1.55 388 1.55 473 1.55
  93  0.917  0.625  0.500- 426 1.54 472 1.55 380 1.55 387 1.55
  94  0.917  0.875  0.000- 381 1.55 475 1.55 429 1.55 390 1.55
  95  0.917  0.875  0.500- 428 1.55 474 1.55 382 1.55 389 1.55
  96  1.000  0.083  0.333- 564 1.55 476 1.55 383 1.55 524 1.55
  97  1.000  0.083  0.833- 384 1.55 565 1.55 477 1.55 525 1.55
  98  1.000  0.333  0.333- 566 1.55 526 1.55 385 1.55 478 1.55
  99  1.000  0.333  0.833- 386 1.55 567 1.55 479 1.55 527 1.55
 100  0.000  0.583  0.333- 528 1.55 387 1.55 568 1.55 480 1.55
 101  0.000  0.583  0.833- 388 1.55 481 1.55 569 1.55 529 1.55
 102  0.000  0.833  0.333- 570 1.55 389 1.55 482 1.55 530 1.55
 103  0.000  0.833  0.833- 390 1.55 571 1.55 483 1.55 531 1.55
 104  0.167  0.083  0.333- 524 1.55 484 1.55 391 1.55 532 1.55
 105  0.167  0.083  0.833- 392 1.55 485 1.55 525 1.55 533 1.55
 106  0.166  0.333  0.333- 526 1.54 534 1.55 393 1.55 486 1.55
 107  0.167  0.333  0.833- 394 1.55 527 1.55 487 1.55 535 1.55
 108  0.167  0.583  0.333- 536 1.55 395 1.55 528 1.55 488 1.55
 109  0.167  0.583  0.833- 529 1.55 489 1.55 537 1.55 396 1.55
 110  0.167  0.833  0.333- 397 1.55 530 1.55 538 1.55 490 1.55
 111  0.167  0.833  0.833- 531 1.55 398 1.55 491 1.55 539 1.55
 112  0.333  0.083  0.333- 492 1.55 399 1.55 540 1.55 532 1.55
 113  0.333  0.083  0.833- 400 1.55 541 1.55 493 1.55 533 1.55
 114  0.333  0.333  0.333- 534 1.54 542 1.55 494 1.55 401 1.55
 115  0.333  0.333  0.833- 495 1.54 543 1.55 402 1.55 535 1.55
 116  0.334  0.583  0.334- 544 1.54 403 1.54 496 1.55 536 1.55
 117  0.333  0.583  0.834- 545 1.54 404 1.54 497 1.55 537 1.55
 118  0.333  0.833  0.333- 546 1.55 405 1.55 498 1.55 538 1.55
 119  0.333  0.833  0.833- 547 1.55 406 1.55 539 1.55 499 1.55
 120  0.500  0.083  0.333- 500 1.55 407 1.55 548 1.55 540 1.55
 121  0.500  0.083  0.833- 408 1.55 549 1.55 541 1.55 501 1.55
 122  0.500  0.334  0.334- 409 1.54 502 1.54 550 1.55 542 1.55
 123  0.500  0.333  0.834- 503 1.54 410 1.54 551 1.55 543 1.55
 124  0.501  0.584  0.334- 574 1.49 552 1.55 544 1.55 504 1.55
 125  0.500  0.583  0.834- 411 1.54 505 1.55 553 1.55 545 1.55
 126  0.500  0.833  0.333- 412 1.55 506 1.55 554 1.55 546 1.55
 127  0.500  0.833  0.833- 413 1.55 507 1.55 555 1.55 547 1.55
 128  0.667  0.083  0.333- 414 1.55 508 1.55 548 1.55 556 1.55
 129  0.667  0.083  0.833- 415 1.55 549 1.55 509 1.55 557 1.55
 130  0.667  0.334  0.333- 550 1.55 558 1.55 416 1.55 510 1.55
 131  0.667  0.333  0.833- 511 1.55 551 1.55 559 1.55 417 1.55
 132  0.667  0.583  0.333- 418 1.54 552 1.55 560 1.55 512 1.55
 133  0.667  0.583  0.834- 553 1.54 419 1.54 561 1.55 513 1.55
 134  0.667  0.833  0.333- 514 1.55 420 1.55 562 1.55 554 1.55
 135  0.667  0.833  0.833- 421 1.55 555 1.55 515 1.55 563 1.55
 136  0.833  0.083  0.333- 556 1.55 516 1.55 422 1.55 564 1.55
 137  0.833  0.083  0.833- 423 1.55 557 1.55 517 1.55 565 1.55
 138  0.833  0.333  0.333- 558 1.55 424 1.55 566 1.55 518 1.55
 139  0.833  0.333  0.833- 425 1.55 567 1.55 559 1.55 519 1.55
 140  0.833  0.583  0.333- 560 1.55 568 1.55 426 1.55 520 1.55
 141  0.833  0.583  0.833- 561 1.55 569 1.55 427 1.55 521 1.55
 142  0.833  0.833  0.333- 562 1.55 522 1.55 428 1.55 570 1.55
 143  0.833  0.833  0.833- 563 1.55 429 1.55 523 1.55 571 1.55
 144  0.083  0.208  0.333- 476 1.55 484 1.55 526 1.55 430 1.55
 145  0.083  0.208  0.833- 431 1.55 485 1.55 527 1.55 477 1.55
 146  0.083  0.458  0.333- 478 1.54 486 1.55 528 1.55 432 1.55
 147  0.083  0.458  0.833- 487 1.55 433 1.55 529 1.55 479 1.55
 148  0.083  0.708  0.333- 434 1.55 488 1.55 480 1.55 530 1.55
 149  0.083  0.708  0.833- 481 1.55 435 1.55 531 1.55 489 1.55
 150  0.083  0.958  0.333- 482 1.55 524 1.55 436 1.55 490 1.55
 151  0.083  0.958  0.833- 437 1.55 525 1.55 483 1.55 491 1.55
 152  0.250  0.208  0.333- 484 1.54 534 1.55 438 1.55 492 1.55
 153  0.250  0.208  0.833- 439 1.55 535 1.55 493 1.55 485 1.55
 154  0.249  0.458  0.333- 486 1.54 536 1.55 494 1.55 440 1.55
 155  0.250  0.458  0.833- 495 1.54 537 1.55 441 1.55 487 1.55
 156  0.250  0.708  0.333- 442 1.55 496 1.55 488 1.55 538 1.55
 157  0.250  0.708  0.833- 497 1.55 489 1.55 539 1.55 443 1.55
 158  0.250  0.958  0.333- 444 1.55 532 1.55 498 1.55 490 1.55
 159  0.250  0.958  0.833- 445 1.55 499 1.55 491 1.55 533 1.55
 160  0.417  0.208  0.333- 542 1.55 446 1.55 500 1.55 492 1.55
 161  0.417  0.208  0.833- 493 1.55 501 1.55 543 1.55 447 1.55
 162  0.415  0.457  0.336- 576 1.48 494 1.55 502 1.56 544 1.56
 163  0.417  0.458  0.834- 448 1.54 495 1.55 503 1.55 545 1.55
 164  0.417  0.708  0.333- 496 1.55 546 1.55 449 1.55 504 1.55
 165  0.417  0.708  0.833- 505 1.55 497 1.55 450 1.55 547 1.55
 166  0.417  0.958  0.333- 451 1.55 540 1.55 498 1.55 506 1.55
 167  0.417  0.958  0.833- 452 1.55 499 1.55 507 1.55 541 1.55
 168  0.583  0.209  0.333- 453 1.55 550 1.55 500 1.55 508 1.55
 169  0.583  0.208  0.833- 509 1.55 551 1.55 501 1.55 454 1.55
 170  0.584  0.459  0.334- 575 1.49 552 1.55 502 1.55 510 1.55
 171  0.583  0.458  0.834- 455 1.54 511 1.55 553 1.55 503 1.55
 172  0.584  0.708  0.333- 554 1.55 512 1.55 456 1.55 504 1.55
 173  0.583  0.708  0.833- 457 1.55 505 1.55 513 1.55 555 1.55
 174  0.583  0.958  0.333- 548 1.55 458 1.55 514 1.55 506 1.55
 175  0.583  0.958  0.833- 459 1.55 515 1.55 549 1.55 507 1.55
 176  0.750  0.208  0.333- 508 1.55 460 1.55 558 1.55 516 1.55
 177  0.750  0.208  0.833- 461 1.55 509 1.55 559 1.55 517 1.55
 178  0.750  0.458  0.333- 518 1.55 560 1.55 462 1.55 510 1.55
 179  0.750  0.458  0.833- 463 1.55 511 1.55 519 1.55 561 1.55
 180  0.750  0.708  0.333- 512 1.55 464 1.55 562 1.55 520 1.55
 181  0.750  0.708  0.833- 513 1.55 465 1.55 563 1.55 521 1.55
 182  0.750  0.958  0.333- 556 1.55 466 1.55 514 1.55 522 1.55
 183  0.750  0.958  0.833- 467 1.55 515 1.55 557 1.55 523 1.55
 184  0.917  0.208  0.333- 516 1.55 468 1.55 566 1.55 476 1.55
 185  0.917  0.208  0.833- 469 1.55 517 1.55 567 1.55 477 1.55
 186  0.917  0.458  0.333- 478 1.55 518 1.55 568 1.55 470 1.55
 187  0.917  0.458  0.833- 471 1.55 519 1.55 479 1.55 569 1.55
 188  0.917  0.708  0.333- 520 1.55 472 1.55 570 1.55 480 1.55
 189  0.917  0.708  0.833- 473 1.55 521 1.55 571 1.55 481 1.55
 190  0.917  0.958  0.333- 522 1.55 564 1.55 474 1.55 482 1.55
 191  0.917  0.958  0.833- 523 1.55 475 1.55 565 1.55 483 1.55
 192  1.000  0.167  0.167- 375 1.55 335 1.55 476 1.55 290 1.55
 193  1.000  0.167  0.667- 376 1.55 477 1.55 291 1.55 336 1.55
 194  1.000  0.417  0.167- 377 1.55 337 1.55 478 1.55 292 1.55
 195  1.000  0.417  0.667- 338 1.55 479 1.55 378 1.55 293 1.55
 196  0.000  0.667  0.167- 379 1.55 339 1.55 480 1.55 294 1.55
 197  0.000  0.667  0.667- 481 1.55 380 1.55 295 1.55 340 1.55
 198  0.000  0.917  0.167- 381 1.55 288 1.55 482 1.55 341 1.55
 199  0.000  0.917  0.667- 382 1.55 483 1.55 289 1.55 342 1.55
 200  0.167  0.167  0.167- 335 1.55 484 1.55 298 1.55 343 1.55
 201  0.167  0.167  0.667- 299 1.55 485 1.55 336 1.55 344 1.55
 202  0.166  0.417  0.167- 337 1.54 486 1.55 345 1.55 300 1.55
 203  0.167  0.417  0.667- 346 1.55 301 1.55 487 1.55 338 1.55
 204  0.167  0.667  0.167- 347 1.55 488 1.55 339 1.55 302 1.55
 205  0.167  0.666  0.667- 489 1.55 340 1.55 303 1.55 348 1.55
 206  0.167  0.917  0.167- 490 1.55 341 1.55 349 1.55 296 1.55
 207  0.167  0.917  0.667- 491 1.55 342 1.55 297 1.55 350 1.55
 208  0.333  0.167  0.167- 492 1.55 306 1.55 343 1.55 351 1.55
 209  0.333  0.167  0.667- 493 1.55 307 1.55 352 1.55 344 1.55
 210  0.333  0.416  0.167- 494 1.54 345 1.54 353 1.55 308 1.55
 211  0.333  0.417  0.667- 309 1.54 354 1.54 495 1.55 346 1.55
 212  0.333  0.667  0.167- 496 1.54 355 1.55 347 1.55 310 1.55
 213  0.334  0.666  0.666- 348 1.55 311 1.55 497 1.55 356 1.55
 214  0.333  0.917  0.167- 304 1.55 498 1.55 357 1.55 349 1.55
 215  0.333  0.917  0.667- 499 1.55 350 1.55 358 1.55 305 1.55
 216  0.500  0.167  0.167- 314 1.55 500 1.55 359 1.55 351 1.55
 217  0.500  0.167  0.667- 360 1.55 501 1.55 352 1.55 315 1.55
 218  0.500  0.417  0.168- 316 1.54 353 1.55 361 1.55 502 1.56
 219  0.500  0.417  0.669- 572 1.52 503 1.54 362 1.55 354 1.55
 220  0.500  0.667  0.166- 504 1.54 317 1.54 363 1.55 355 1.55
 221  0.500  0.666  0.667- 364 1.54 356 1.54 505 1.55 318 1.55
 222  0.500  0.917  0.167- 312 1.55 506 1.55 365 1.55 357 1.55
 223  0.500  0.917  0.667- 507 1.55 366 1.55 358 1.55 313 1.55
 224  0.667  0.167  0.167- 321 1.55 508 1.55 359 1.55 367 1.55
 225  0.667  0.167  0.667- 509 1.55 360 1.55 322 1.55 368 1.55
 226  0.667  0.417  0.166- 510 1.54 369 1.54 323 1.55 361 1.55
 227  0.666  0.417  0.667- 324 1.54 362 1.54 370 1.55 511 1.55
 228  0.667  0.667  0.167- 512 1.54 325 1.55 371 1.55 363 1.55
 229  0.667  0.667  0.666- 372 1.55 326 1.55 364 1.55 513 1.55
 230  0.667  0.917  0.167- 319 1.55 514 1.55 365 1.55 373 1.55
 231  0.667  0.917  0.667- 515 1.55 366 1.55 374 1.55 320 1.55
 232  0.833  0.167  0.167- 329 1.55 367 1.55 516 1.55 375 1.55
 233  0.833  0.167  0.667- 517 1.55 368 1.55 330 1.55 376 1.55
 234  0.833  0.417  0.167- 377 1.55 518 1.55 331 1.55 369 1.55
 235  0.833  0.417  0.667- 519 1.55 332 1.55 370 1.55 378 1.55
 236  0.833  0.667  0.167- 520 1.55 371 1.55 333 1.55 379 1.55
 237  0.833  0.667  0.667- 521 1.55 334 1.55 372 1.55 380 1.55
 238  0.833  0.917  0.167- 327 1.55 522 1.55 373 1.55 381 1.55
 239  0.833  0.917  0.667- 374 1.55 523 1.55 328 1.55 382 1.55
 240  0.083  0.042  0.167- 288 1.55 524 1.55 335 1.55 296 1.55
 241  0.083  0.042  0.667- 525 1.55 336 1.55 289 1.55 297 1.55
 242  0.083  0.292  0.167- 290 1.55 298 1.55 526 1.55 337 1.55
 243  0.083  0.292  0.667- 527 1.55 291 1.55 338 1.55 299 1.55
 244  0.083  0.542  0.167- 300 1.55 528 1.55 292 1.55 339 1.55
 245  0.083  0.542  0.667- 529 1.55 301 1.55 340 1.55 293 1.55
 246  0.083  0.792  0.167- 302 1.55 294 1.55 530 1.55 341 1.55
 247  0.083  0.792  0.667- 295 1.55 531 1.55 342 1.55 303 1.55
 248  0.250  0.042  0.167- 343 1.55 532 1.55 296 1.55 304 1.55
 249  0.250  0.042  0.667- 533 1.55 344 1.55 305 1.55 297 1.55
 250  0.250  0.292  0.167- 298 1.55 534 1.55 306 1.55 345 1.55
 251  0.250  0.292  0.667- 346 1.55 535 1.55 307 1.55 299 1.55
 252  0.250  0.542  0.167- 536 1.54 308 1.55 347 1.55 300 1.55
 253  0.250  0.541  0.666- 348 1.55 301 1.55 537 1.55 309 1.55
 254  0.250  0.792  0.167- 538 1.55 310 1.55 302 1.55 349 1.55
 255  0.250  0.792  0.667- 539 1.55 303 1.55 311 1.55 350 1.55
 256  0.417  0.042  0.167- 351 1.55 304 1.55 540 1.55 312 1.55
 257  0.417  0.042  0.667- 541 1.55 305 1.55 313 1.55 352 1.55
 258  0.417  0.292  0.167- 542 1.54 353 1.55 314 1.55 306 1.55
 259  0.417  0.292  0.666- 315 1.55 307 1.55 543 1.55 354 1.55
 260  0.417  0.541  0.168- 316 1.54 308 1.55 355 1.55 544 1.56
 261  0.417  0.541  0.669- 572 1.52 545 1.54 356 1.55 309 1.55
 262  0.417  0.792  0.167- 357 1.55 310 1.55 546 1.55 317 1.55
 263  0.417  0.792  0.667- 318 1.55 311 1.55 547 1.55 358 1.55
 264  0.583  0.042  0.167- 359 1.55 548 1.55 319 1.55 312 1.55
 265  0.583  0.042  0.667- 549 1.55 320 1.55 313 1.55 360 1.55
 266  0.583  0.292  0.167- 550 1.54 361 1.55 314 1.55 321 1.55
 267  0.583  0.292  0.666- 315 1.55 322 1.55 551 1.55 362 1.55
 268  0.583  0.542  0.167- 552 1.54 323 1.55 363 1.55 316 1.55
 269  0.583  0.542  0.669- 572 1.52 553 1.54 324 1.55 364 1.55
 270  0.583  0.792  0.167- 365 1.55 554 1.55 325 1.55 317 1.55
 271  0.583  0.792  0.667- 555 1.55 326 1.55 318 1.55 366 1.55
 272  0.750  0.042  0.167- 367 1.55 556 1.55 319 1.55 327 1.55
 273  0.750  0.042  0.667- 557 1.55 320 1.55 368 1.55 328 1.55
 274  0.750  0.292  0.167- 329 1.55 321 1.55 558 1.55 369 1.55
 275  0.750  0.292  0.667- 322 1.55 370 1.55 559 1.55 330 1.55
 276  0.750  0.542  0.167- 560 1.54 331 1.55 371 1.55 323 1.55
 277  0.750  0.542  0.666- 372 1.55 332 1.55 324 1.55 561 1.55
 278  0.750  0.792  0.167- 562 1.55 373 1.55 325 1.55 333 1.55
 279  0.750  0.792  0.667- 563 1.55 326 1.55 334 1.55 374 1.55
 280  0.917  0.042  0.167- 327 1.55 375 1.55 564 1.55 288 1.55
 281  0.917  0.042  0.667- 328 1.55 565 1.55 376 1.55 289 1.55
 282  0.917  0.292  0.167- 329 1.55 566 1.55 290 1.55 377 1.55
 283  0.917  0.292  0.667- 567 1.55 330 1.55 378 1.55 291 1.55
 284  0.917  0.542  0.167- 568 1.55 331 1.55 292 1.55 379 1.55
 285  0.917  0.542  0.667- 332 1.55 569 1.55 380 1.55 293 1.55
 286  0.917  0.792  0.167- 333 1.55 381 1.55 570 1.55 294 1.55
 287  0.917  0.792  0.667- 571 1.55 334 1.55 382 1.55 295 1.55
 288  1.000  1.000  0.125-   1 1.55 240 1.55 198 1.55 280 1.55
 289  0.000  1.000  0.625-   2 1.55 241 1.55 199 1.55 281 1.55
 290  1.000  0.250  0.125- 242 1.55   3 1.55 282 1.55 192 1.55
 291  1.000  0.250  0.625- 243 1.55   4 1.55 193 1.55 283 1.55
 292  0.000  0.500  0.125-   5 1.55 284 1.55 244 1.55 194 1.55
 293  0.000  0.500  0.625- 195 1.55   6 1.55 245 1.55 285 1.55
 294  0.000  0.750  0.125-   7 1.55 246 1.55 196 1.55 286 1.55
 295  0.000  0.750  0.625-   8 1.55 247 1.55 197 1.55 287 1.55
 296  0.167  1.000  0.125-   9 1.55 240 1.55 248 1.55 206 1.55
 297  0.167  1.000  0.625-  10 1.55 241 1.55 207 1.55 249 1.55
 298  0.167  0.250  0.125- 250 1.55  11 1.55 200 1.55 242 1.55
 299  0.167  0.250  0.625- 201 1.55 243 1.55  12 1.55 251 1.55
 300  0.167  0.500  0.125- 244 1.55  13 1.55 202 1.55 252 1.55
 301  0.167  0.500  0.625-  14 1.55 245 1.55 203 1.55 253 1.55
 302  0.167  0.750  0.125- 246 1.55  15 1.55 254 1.55 204 1.55
 303  0.167  0.750  0.625-  16 1.55 255 1.55 205 1.55 247 1.55
 304  0.333  0.000  0.125-  17 1.55 214 1.55 256 1.55 248 1.55
 305  0.333  1.000  0.625-  18 1.55 249 1.55 257 1.55 215 1.55
 306  0.333  0.250  0.125-  19 1.55 208 1.55 250 1.55 258 1.55
 307  0.333  0.250  0.625-  20 1.55 209 1.55 251 1.55 259 1.55
 308  0.333  0.500  0.125-  21 1.55 252 1.55 210 1.55 260 1.55
 309  0.334  0.499  0.625- 211 1.54 261 1.55 253 1.55  22 1.56
 310  0.333  0.750  0.125-  23 1.55 254 1.55 262 1.55 212 1.55
 311  0.333  0.750  0.625-  24 1.55 263 1.55 255 1.55 213 1.55
 312  0.500  0.000  0.125-  25 1.55 222 1.55 256 1.55 264 1.55
 313  0.500  0.000  0.625-  26 1.55 257 1.55 265 1.55 223 1.55
 314  0.500  0.250  0.125-  27 1.55 216 1.55 258 1.55 266 1.55
 315  0.500  0.250  0.625-  28 1.54 259 1.55 267 1.55 217 1.55
 316  0.500  0.500  0.126- 218 1.54 260 1.54  29 1.55 268 1.55
 317  0.500  0.750  0.125- 220 1.54  30 1.54 262 1.55 270 1.55
 318  0.500  0.750  0.625-  31 1.55 263 1.55 271 1.55 221 1.55
 319  0.667  0.000  0.125- 230 1.55  32 1.55 272 1.55 264 1.55
 320  0.667  0.000  0.625-  33 1.55 273 1.55 265 1.55 231 1.55
 321  0.667  0.250  0.125-  34 1.55 224 1.55 274 1.55 266 1.55
 322  0.667  0.250  0.625-  35 1.55 275 1.55 225 1.55 267 1.55
 323  0.667  0.500  0.125-  36 1.54 276 1.55 226 1.55 268 1.55
 324  0.666  0.500  0.625- 227 1.54 277 1.55 269 1.55  37 1.55
 325  0.667  0.750  0.125-  38 1.55 228 1.55 270 1.55 278 1.55
 326  0.667  0.750  0.625- 279 1.55 271 1.55  39 1.55 229 1.55
 327  0.833  0.000  0.125- 280 1.55  40 1.55 238 1.55 272 1.55
 328  0.833  0.000  0.625- 281 1.55  41 1.55 239 1.55 273 1.55
 329  0.833  0.250  0.125- 282 1.55  42 1.55 274 1.55 232 1.55
 330  0.833  0.250  0.625-  43 1.55 283 1.55 233 1.55 275 1.55
 331  0.833  0.500  0.125-  44 1.55 284 1.55 276 1.55 234 1.55
 332  0.833  0.500  0.625- 285 1.55 235 1.55  45 1.55 277 1.55
 333  0.833  0.750  0.125- 286 1.55  46 1.55 236 1.55 278 1.55
 334  0.833  0.750  0.625- 287 1.55  47 1.55 237 1.55 279 1.55
 335  0.083  0.125  0.125- 200 1.55  48 1.55 240 1.55 192 1.55
 336  0.083  0.125  0.625- 241 1.55  49 1.55 201 1.55 193 1.55
 337  0.083  0.375  0.125- 202 1.54  50 1.55 194 1.55 242 1.55
 338  0.083  0.375  0.625- 195 1.55 243 1.55  51 1.55 203 1.55
 339  0.083  0.625  0.125- 196 1.55  52 1.55 244 1.55 204 1.55
 340  0.083  0.625  0.625-  53 1.55 245 1.55 205 1.55 197 1.55
 341  0.083  0.875  0.125-  54 1.55 246 1.55 206 1.55 198 1.55
 342  0.083  0.875  0.625-  55 1.55 207 1.55 247 1.55 199 1.55
 343  0.250  0.125  0.125-  56 1.55 248 1.55 208 1.55 200 1.55
 344  0.250  0.125  0.625- 249 1.55  57 1.55 201 1.55 209 1.55
 345  0.250  0.375  0.125- 210 1.54  58 1.54 202 1.55 250 1.55
 346  0.250  0.375  0.625- 251 1.55 203 1.55  59 1.55 211 1.55
 347  0.250  0.625  0.125-  60 1.54 204 1.55 252 1.55 212 1.55
 348  0.250  0.625  0.625-  61 1.54 253 1.55 213 1.55 205 1.55
 349  0.250  0.875  0.125-  62 1.55 206 1.55 214 1.55 254 1.55
 350  0.250  0.875  0.625-  63 1.55 215 1.55 207 1.55 255 1.55
 351  0.417  0.125  0.125- 256 1.55  64 1.55 216 1.55 208 1.55
 352  0.417  0.125  0.625-  65 1.55 209 1.55 217 1.55 257 1.55
 353  0.417  0.375  0.125-  66 1.55 258 1.55 210 1.55 218 1.55
 354  0.416  0.376  0.625- 211 1.54 219 1.55 259 1.55  67 1.56
 355  0.417  0.625  0.126- 212 1.55  68 1.55 220 1.55 260 1.55
 356  0.417  0.624  0.625- 221 1.54 261 1.55 213 1.55  69 1.55
 357  0.417  0.875  0.125- 262 1.55  70 1.55 214 1.55 222 1.55
 358  0.417  0.875  0.625-  71 1.55 215 1.55 223 1.55 263 1.55
 359  0.583  0.125  0.125- 264 1.55  72 1.55 216 1.55 224 1.55
 360  0.583  0.125  0.625-  73 1.55 217 1.55 225 1.55 265 1.55
 361  0.583  0.375  0.126- 266 1.55  74 1.55 226 1.55 218 1.55
 362  0.583  0.376  0.625- 227 1.54 219 1.55 267 1.55  75 1.55
 363  0.583  0.625  0.125-  76 1.54 228 1.55 220 1.55 268 1.55
 364  0.583  0.625  0.625- 221 1.54 229 1.55 269 1.55  77 1.55
 365  0.583  0.875  0.125- 270 1.55  78 1.55 222 1.55 230 1.55
 366  0.583  0.875  0.625-  79 1.55 223 1.55 231 1.55 271 1.55
 367  0.750  0.125  0.125- 272 1.55  80 1.55 232 1.55 224 1.55
 368  0.750  0.125  0.625-  81 1.55 233 1.55 273 1.55 225 1.55
 369  0.750  0.375  0.125- 226 1.54  82 1.54 274 1.55 234 1.55
 370  0.750  0.375  0.625-  83 1.55 275 1.55 235 1.55 227 1.55
 371  0.750  0.625  0.125-  84 1.54 236 1.55 276 1.55 228 1.55
 372  0.750  0.625  0.625- 229 1.55 277 1.55  85 1.55 237 1.55
 373  0.750  0.875  0.125-  86 1.55 278 1.55 238 1.55 230 1.55
 374  0.750  0.875  0.625- 239 1.55  87 1.55 231 1.55 279 1.55
 375  0.917  0.125  0.125- 192 1.55  88 1.55 280 1.55 232 1.55
 376  0.917  0.125  0.625- 193 1.55  89 1.55 281 1.55 233 1.55
 377  0.917  0.375  0.125- 234 1.55 194 1.55  90 1.55 282 1.55
 378  0.917  0.375  0.625- 195 1.55  91 1.55 283 1.55 235 1.55
 379  0.917  0.625  0.125-  92 1.55 196 1.55 284 1.55 236 1.55
 380  0.917  0.625  0.625-  93 1.55 197 1.55 285 1.55 237 1.55
 381  0.917  0.875  0.125- 198 1.55  94 1.55 286 1.55 238 1.55
 382  0.917  0.875  0.625- 199 1.55  95 1.55 287 1.55 239 1.55
 383  1.000  0.083  0.458-  49 1.55   2 1.55  96 1.55  89 1.55
 384  1.000  0.083  0.958-  48 1.55  97 1.55   1 1.55  88 1.55
 385  1.000  0.333  0.458-  51 1.54  91 1.55   4 1.55  98 1.55
 386  1.000  0.333  0.958-  99 1.55  50 1.55  90 1.55   3 1.55
 387  0.000  0.583  0.458- 100 1.55  93 1.55  53 1.55   6 1.55
 388  0.000  0.583  0.958- 101 1.55  52 1.55  92 1.55   5 1.55
 389  0.000  0.833  0.458-  55 1.55 102 1.55   8 1.55  95 1.55
 390  0.000  0.833  0.958- 103 1.55  54 1.55   7 1.55  94 1.55
 391  0.167  0.083  0.458-  57 1.55  10 1.55 104 1.55  49 1.55
 392  0.167  0.083  0.958- 105 1.55   9 1.55  56 1.55  48 1.55
 393  0.166  0.333  0.458-  59 1.54  51 1.55  12 1.55 106 1.55
 394  0.167  0.333  0.958- 107 1.55  58 1.55  50 1.55  11 1.55
 395  0.167  0.583  0.458- 108 1.55  14 1.55  53 1.55  61 1.55
 396  0.167  0.583  0.958-  13 1.55  52 1.55  60 1.55 109 1.55
 397  0.167  0.833  0.458- 110 1.55  63 1.55  55 1.55  16 1.55
 398  0.167  0.833  0.958- 111 1.55  15 1.55  62 1.55  54 1.55
 399  0.333  0.083  0.458- 112 1.55  18 1.55  57 1.55  65 1.55
 400  0.333  0.083  0.958- 113 1.55  17 1.55  56 1.55  64 1.55
 401  0.332  0.332  0.458-  20 1.54  67 1.54  59 1.55 114 1.55
 402  0.333  0.333  0.958-  19 1.55  58 1.55 115 1.55  66 1.55
 403  0.335  0.582  0.458- 116 1.54  69 1.55  22 1.56  61 1.56
 404  0.333  0.583  0.959- 117 1.54  60 1.54  21 1.55  68 1.55
 405  0.333  0.833  0.458-  63 1.55 118 1.55  24 1.55  71 1.55
 406  0.333  0.833  0.958- 119 1.55  62 1.55  70 1.55  23 1.55
 407  0.500  0.083  0.458- 120 1.55  65 1.55  73 1.55  26 1.55
 408  0.500  0.083  0.958-  64 1.55 121 1.55  72 1.55  25 1.55
 409  0.500  0.335  0.458- 122 1.54  75 1.55  67 1.56  28 1.56
 410  0.500  0.333  0.959- 123 1.54  27 1.54  66 1.55  74 1.55
 411  0.500  0.583  0.959- 125 1.54  68 1.55  76 1.55  29 1.55
 412  0.500  0.833  0.458-  71 1.55 126 1.55  31 1.55  79 1.55
 413  0.500  0.833  0.958-  30 1.55 127 1.55  70 1.55  78 1.55
 414  0.667  0.084  0.458- 128 1.55  81 1.55  33 1.55  73 1.55
 415  0.667  0.083  0.958-  32 1.55 129 1.55  80 1.55  72 1.55
 416  0.667  0.333  0.458-  35 1.54 130 1.55  83 1.55  75 1.57
 417  0.667  0.333  0.958-  34 1.55  82 1.55 131 1.55  74 1.55
 418  0.667  0.583  0.458-  85 1.54 132 1.54  37 1.55  77 1.55
 419  0.667  0.583  0.959- 133 1.54  84 1.54  36 1.55  76 1.55
 420  0.667  0.834  0.458-  39 1.54  87 1.54 134 1.55  79 1.55
 421  0.667  0.833  0.958- 135 1.55  38 1.55  86 1.55  78 1.55
 422  0.833  0.083  0.458-  41 1.55  89 1.55 136 1.55  81 1.55
 423  0.833  0.083  0.958- 137 1.55  40 1.55  88 1.55  80 1.55
 424  0.833  0.333  0.458-  91 1.55  43 1.55 138 1.55  83 1.55
 425  0.833  0.333  0.958- 139 1.55  82 1.55  90 1.55  42 1.55
 426  0.834  0.583  0.458-  93 1.54 140 1.55  45 1.55  85 1.55
 427  0.833  0.583  0.958-  92 1.55 141 1.55  44 1.55  84 1.55
 428  0.833  0.833  0.458-  95 1.55 142 1.55  47 1.55  87 1.55
 429  0.833  0.833  0.958- 143 1.55  94 1.55  46 1.55  86 1.55
 430  0.083  0.208  0.458-  12 1.54  49 1.55   4 1.55 144 1.55
 431  0.083  0.208  0.958-  11 1.55 145 1.55  48 1.55   3 1.55
 432  0.083  0.458  0.458-  14 1.54   6 1.54 146 1.55  51 1.55
 433  0.083  0.458  0.958- 147 1.55   5 1.55  13 1.55  50 1.55
 434  0.083  0.708  0.458-  16 1.55 148 1.55  53 1.55   8 1.55
 435  0.083  0.708  0.958-  15 1.55  52 1.55 149 1.55   7 1.55
 436  0.083  0.958  0.458-  10 1.55 150 1.55  55 1.55   2 1.55
 437  0.083  0.958  0.958- 151 1.55   9 1.55  54 1.55   1 1.55
 438  0.250  0.208  0.458-  20 1.54  57 1.54 152 1.55  12 1.55
 439  0.250  0.208  0.958- 153 1.55  56 1.55  11 1.55  19 1.55
 440  0.249  0.458  0.458-  14 1.54  22 1.54  59 1.55 154 1.55
 441  0.250  0.458  0.958-  13 1.55  58 1.55 155 1.55  21 1.55
 442  0.250  0.708  0.458- 156 1.55  24 1.55  16 1.55  61 1.55
 443  0.250  0.708  0.958-  15 1.55  23 1.55  60 1.55 157 1.55
 444  0.250  0.958  0.458-  63 1.55  10 1.55 158 1.55  18 1.55
 445  0.250  0.958  0.958- 159 1.55   9 1.55  17 1.55  62 1.55
 446  0.417  0.208  0.458- 160 1.55  20 1.55  65 1.55  28 1.55
 447  0.417  0.208  0.958-  19 1.55  64 1.55  27 1.55 161 1.55
 448  0.417  0.458  0.959- 163 1.54  21 1.55  66 1.55  29 1.55
 449  0.417  0.708  0.459-  24 1.54 164 1.55  31 1.55  69 1.57
 450  0.417  0.708  0.959-  23 1.55  30 1.55 165 1.55  68 1.55
 451  0.417  0.958  0.458-  18 1.55 166 1.55  71 1.55  26 1.55
 452  0.417  0.958  0.958- 167 1.55  17 1.55  70 1.55  25 1.55
 453  0.583  0.209  0.458- 168 1.55  35 1.55  73 1.55  28 1.55
 454  0.583  0.208  0.958-  72 1.55  34 1.55  27 1.55 169 1.55
 455  0.583  0.458  0.959- 171 1.54  74 1.55  36 1.55  29 1.55
 456  0.584  0.709  0.458-  39 1.54  31 1.55 172 1.55  77 1.55
 457  0.583  0.708  0.958- 173 1.55  38 1.55  76 1.55  30 1.55
 458  0.583  0.958  0.458-  79 1.55  33 1.55 174 1.55  26 1.55
 459  0.583  0.958  0.958- 175 1.55  78 1.55  32 1.55  25 1.55
 460  0.750  0.208  0.458-  81 1.55  35 1.55 176 1.55  43 1.55
 461  0.750  0.208  0.958- 177 1.55  42 1.55  80 1.55  34 1.55
 462  0.751  0.459  0.458-  45 1.54  83 1.55 178 1.55  37 1.55
 463  0.750  0.458  0.958- 179 1.55  44 1.55  82 1.55  36 1.55
 464  0.750  0.709  0.458-  47 1.54 180 1.55  39 1.55  85 1.55
 465  0.750  0.708  0.958-  46 1.55 181 1.55  84 1.55  38 1.55
 466  0.750  0.959  0.458-  87 1.54  41 1.55 182 1.55  33 1.55
 467  0.750  0.958  0.958- 183 1.55  86 1.55  40 1.55  32 1.55
 468  0.917  0.208  0.458-   4 1.55  89 1.55 184 1.55  43 1.55
 469  0.917  0.208  0.958- 185 1.55  42 1.55   3 1.55  88 1.55
 470  0.917  0.458  0.458-  45 1.54   6 1.54 186 1.55  91 1.55
 471  0.917  0.458  0.958- 187 1.55  44 1.55   5 1.55  90 1.55
 472  0.917  0.708  0.458-   8 1.55 188 1.55  93 1.55  47 1.55
 473  0.917  0.708  0.958- 189 1.55  92 1.55   7 1.55  46 1.55
 474  0.917  0.958  0.458-   2 1.55  95 1.55 190 1.55  41 1.55
 475  0.917  0.958  0.958- 191 1.55  94 1.55   1 1.55  40 1.55
 476  1.000  0.167  0.292- 144 1.55  96 1.55 192 1.55 184 1.55
 477  1.000  0.167  0.792- 193 1.55  97 1.55 145 1.55 185 1.55
 478  1.000  0.417  0.292- 146 1.54 186 1.55 194 1.55  98 1.55
 479  1.000  0.417  0.792- 195 1.55 187 1.55  99 1.55 147 1.55
 480  0.000  0.667  0.292- 196 1.55 148 1.55 100 1.55 188 1.55
 481  0.000  0.667  0.792- 197 1.55 101 1.55 149 1.55 189 1.55
 482  0.000  0.917  0.292- 150 1.55 102 1.55 198 1.55 190 1.55
 483  0.000  0.917  0.792- 199 1.55 103 1.55 151 1.55 191 1.55
 484  0.167  0.167  0.292- 152 1.54 104 1.55 200 1.55 144 1.55
 485  0.167  0.167  0.792- 201 1.55 105 1.55 145 1.55 153 1.55
 486  0.166  0.417  0.291- 154 1.54 146 1.55 202 1.55 106 1.55
 487  0.167  0.417  0.792- 147 1.55 203 1.55 107 1.55 155 1.55
 488  0.167  0.667  0.292- 204 1.55 148 1.55 156 1.55 108 1.55
 489  0.167  0.667  0.792- 109 1.55 157 1.55 205 1.55 149 1.55
 490  0.167  0.917  0.292- 206 1.55 158 1.55 150 1.55 110 1.55
 491  0.167  0.917  0.792- 207 1.55 111 1.55 159 1.55 151 1.55
 492  0.333  0.167  0.292- 112 1.55 208 1.55 152 1.55 160 1.55
 493  0.333  0.167  0.792- 209 1.55 161 1.55 113 1.55 153 1.55
 494  0.333  0.416  0.291- 210 1.54 162 1.55 154 1.55 114 1.55
 495  0.333  0.417  0.792- 115 1.54 155 1.54 163 1.55 211 1.55
 496  0.333  0.667  0.292- 212 1.54 156 1.55 164 1.55 116 1.55
 497  0.333  0.667  0.792- 165 1.55 157 1.55 117 1.55 213 1.55
 498  0.333  0.917  0.292- 214 1.55 158 1.55 118 1.55 166 1.55
 499  0.333  0.917  0.792- 215 1.55 167 1.55 159 1.55 119 1.55
 500  0.500  0.167  0.292- 216 1.55 120 1.55 160 1.55 168 1.55
 501  0.500  0.167  0.792- 161 1.55 217 1.55 169 1.55 121 1.55
 502  0.500  0.417  0.294- 122 1.54 170 1.55 218 1.56 162 1.56
 503  0.500  0.416  0.793- 123 1.54 219 1.54 163 1.55 171 1.55
 504  0.500  0.667  0.290- 220 1.54 164 1.55 172 1.55 124 1.55
 505  0.500  0.667  0.792- 165 1.55 173 1.55 125 1.55 221 1.55
 506  0.500  0.917  0.292- 222 1.55 166 1.55 126 1.55 174 1.55
 507  0.500  0.917  0.792- 223 1.55 127 1.55 167 1.55 175 1.55
 508  0.667  0.167  0.292- 128 1.55 224 1.55 176 1.55 168 1.55
 509  0.667  0.167  0.792- 169 1.55 225 1.55 177 1.55 129 1.55
 510  0.667  0.417  0.290- 226 1.54 130 1.55 178 1.55 170 1.55
 511  0.667  0.417  0.792- 131 1.55 179 1.55 171 1.55 227 1.55
 512  0.667  0.667  0.292- 228 1.54 180 1.55 172 1.55 132 1.55
 513  0.667  0.667  0.792- 181 1.55 173 1.55 133 1.55 229 1.55
 514  0.667  0.917  0.292- 134 1.55 230 1.55 182 1.55 174 1.55
 515  0.667  0.917  0.792- 231 1.55 183 1.55 175 1.55 135 1.55
 516  0.833  0.167  0.292- 184 1.55 136 1.55 232 1.55 176 1.55
 517  0.833  0.167  0.792- 233 1.55 185 1.55 137 1.55 177 1.55
 518  0.833  0.417  0.292- 178 1.55 186 1.55 234 1.55 138 1.55
 519  0.833  0.417  0.792- 235 1.55 187 1.55 179 1.55 139 1.55
 520  0.833  0.667  0.292- 188 1.55 236 1.55 140 1.55 180 1.55
 521  0.833  0.667  0.792- 237 1.55 189 1.55 141 1.55 181 1.55
 522  0.833  0.917  0.292- 190 1.55 142 1.55 238 1.55 182 1.55
 523  0.833  0.917  0.792- 239 1.55 191 1.55 143 1.55 183 1.55
 524  0.083  0.042  0.292- 104 1.55 240 1.55 150 1.55  96 1.55
 525  0.083  0.042  0.792- 241 1.55 105 1.55 151 1.55  97 1.55
 526  0.083  0.292  0.292- 106 1.54 242 1.55 144 1.55  98 1.55
 527  0.083  0.292  0.792- 243 1.55 107 1.55 145 1.55  99 1.55
 528  0.083  0.542  0.292- 244 1.55 100 1.55 108 1.55 146 1.55
 529  0.083  0.542  0.792- 245 1.55 109 1.55 147 1.55 101 1.55
 530  0.083  0.792  0.292- 110 1.55 246 1.55 148 1.55 102 1.55
 531  0.083  0.792  0.792- 247 1.55 111 1.55 149 1.55 103 1.55
 532  0.250  0.042  0.292- 248 1.55 158 1.55 104 1.55 112 1.55
 533  0.250  0.042  0.792- 249 1.55 105 1.55 113 1.55 159 1.55
 534  0.250  0.291  0.292- 114 1.54 250 1.55 152 1.55 106 1.55
 535  0.250  0.292  0.792- 153 1.55 251 1.55 107 1.55 115 1.55
 536  0.250  0.542  0.292- 252 1.54 108 1.55 154 1.55 116 1.55
 537  0.250  0.542  0.792- 155 1.55 109 1.55 117 1.55 253 1.55
 538  0.250  0.792  0.292- 254 1.55 110 1.55 118 1.55 156 1.55
 539  0.250  0.792  0.792- 255 1.55 119 1.55 157 1.55 111 1.55
 540  0.417  0.042  0.292- 112 1.55 256 1.55 166 1.55 120 1.55
 541  0.417  0.042  0.792- 257 1.55 113 1.55 167 1.55 121 1.55
 542  0.417  0.292  0.292- 258 1.54 160 1.55 114 1.55 122 1.55
 543  0.417  0.292  0.792- 115 1.55 161 1.55 123 1.55 259 1.55
 544  0.417  0.541  0.294- 116 1.54 124 1.55 260 1.56 162 1.56
 545  0.416  0.542  0.793- 117 1.54 261 1.54 163 1.55 125 1.55
 546  0.417  0.792  0.292- 118 1.55 262 1.55 164 1.55 126 1.55
 547  0.417  0.792  0.792- 119 1.55 263 1.55 127 1.55 165 1.55
 548  0.583  0.042  0.292- 174 1.55 264 1.55 128 1.55 120 1.55
 549  0.583  0.042  0.792- 265 1.55 129 1.55 121 1.55 175 1.55
 550  0.583  0.292  0.292- 266 1.54 168 1.55 130 1.55 122 1.55
 551  0.583  0.292  0.792- 131 1.55 169 1.55 123 1.55 267 1.55
 552  0.583  0.542  0.292- 268 1.54 132 1.55 124 1.55 170 1.55
 553  0.584  0.542  0.793- 269 1.54 133 1.54 171 1.55 125 1.55
 554  0.583  0.792  0.292- 172 1.55 270 1.55 134 1.55 126 1.55
 555  0.583  0.792  0.792- 271 1.55 135 1.55 173 1.55 127 1.55
 556  0.750  0.042  0.292- 182 1.55 136 1.55 272 1.55 128 1.55
 557  0.750  0.042  0.792- 273 1.55 137 1.55 129 1.55 183 1.55
 558  0.750  0.292  0.292- 138 1.55 176 1.55 274 1.55 130 1.55
 559  0.750  0.292  0.792- 139 1.55 275 1.55 177 1.55 131 1.55
 560  0.750  0.542  0.292- 276 1.54 140 1.55 178 1.55 132 1.55
 561  0.750  0.542  0.792- 141 1.55 179 1.55 133 1.55 277 1.55
 562  0.750  0.792  0.292- 142 1.55 278 1.55 180 1.55 134 1.55
 563  0.750  0.792  0.792- 279 1.55 143 1.55 181 1.55 135 1.55
 564  0.917  0.042  0.292-  96 1.55 190 1.55 280 1.55 136 1.55
 565  0.917  0.042  0.792- 281 1.55  97 1.55 191 1.55 137 1.55
 566  0.917  0.292  0.292-  98 1.55 282 1.55 184 1.55 138 1.55
 567  0.917  0.292  0.792- 283 1.55 139 1.55  99 1.55 185 1.55
 568  0.917  0.542  0.292- 140 1.55 284 1.55 100 1.55 186 1.55
 569  0.917  0.542  0.792- 285 1.55 141 1.55 101 1.55 187 1.55
 570  0.917  0.792  0.292- 102 1.55 286 1.55 188 1.55 142 1.55
 571  0.917  0.792  0.792- 287 1.55 103 1.55 189 1.55 143 1.55
 572  0.500  0.500  0.634- 573 1.09 219 1.52 261 1.52 269 1.52
 573  0.501  0.501  0.546- 572 1.09
 574  0.502  0.589  0.454- 124 1.49  77 1.49  69 1.51
 575  0.590  0.457  0.454- 170 1.49  37 1.49  75 1.51
 576  0.409  0.454  0.455-  67 1.48  22 1.48 162 1.48
 
  LATTYP: Found a simple monoclinic cell.
 ALAT       =    12.3703241348
 B/A-ratio  =     1.2248453018
 C/A-ratio  =     1.4141600350
 COS(beta)  =    -0.0000282295
  
  Lattice vectors:
  
 A1 = (   0.0000000000,  -0.0003492082,  12.3703241299)
 A2 = (  15.1517333984,   0.0000000000,   0.0000000000)
 A3 = (   0.0000000000,  17.4936180115,   0.0000000000)


Analysis of symmetry for initial positions (statically):
=====================================================================
 Subroutine PRICEL returns:
 Original cell was already a primitive cell.
 

 Routine SETGRP: Setting up the symmetry group for a 
 simple monoclinic supercell.


 Subroutine GETGRP returns: Found  1 space group operations
 (whereof  1 operations were pure point group operations)
 out of a pool of  4 trial point group operations.


The static configuration has the point symmetry C_1 .


Analysis of symmetry for dynamics (positions and initial velocities):
=====================================================================
 Subroutine PRICEL returns:
 Original cell was already a primitive cell.
 

 Routine SETGRP: Setting up the symmetry group for a 
 simple monoclinic supercell.


 Subroutine GETGRP returns: Found  1 space group operations
 (whereof  1 operations were pure point group operations)
 out of a pool of  4 trial point group operations.


The dynamic configuration has the point symmetry C_1 .


Analysis of structural, dynamic, and magnetic symmetry:
=====================================================================
 Subroutine PRICEL returns:
 Original cell was already a primitive cell.
 

 Routine SETGRP: Setting up the symmetry group for a 
 simple monoclinic supercell.


 Subroutine GETGRP returns: Found  1 space group operations
 (whereof  1 operations were pure point group operations)
 out of a pool of  4 trial point group operations.


The overall configuration has the point symmetry C_1 .


 Subroutine INISYM returns: Found  1 space group operations
 (whereof  1 operations are pure point group operations),
 and found     1 'primitive' translations


----------------------------------------------------------------------------------------

                                     Primitive cell                                     

  volume of cell :    3278.8612

  direct lattice vectors                    reciprocal lattice vectors
    15.151733398  0.000000000  0.000000000     0.065999049  0.000000000  0.000000000
     0.000000000 17.493618012  0.000000000     0.000000000  0.057163704  0.000001614
     0.000000000 -0.000349208 12.370324130     0.000000000  0.000000000  0.080838626

  length of vectors
    15.151733398 17.493618012 12.370324135     0.065999049  0.057163704  0.080838626

  position of ions in fractional coordinates (direct lattice)
     0.000003614  0.999974386  0.999996886
     0.000011479  0.999943952  0.500012949
     0.999964412  0.249972647  0.999912757
     0.999894621  0.249945134  0.499968052
     0.000003915  0.499998595  0.999989413
     0.000034836  0.499943959  0.499969710
     0.000041295  0.749978244  0.000010431
     0.000114842  0.749972932  0.500029708
     0.166669229  0.999972265  0.000012757
     0.166631378  0.999919583  0.500009802
     0.166599119  0.249949411  0.999951794
     0.166405658  0.249788548  0.499984935
     0.166642425  0.499967413  0.000067368
     0.166096399  0.499779500  0.499969965
     0.166706863  0.749959262  0.000059626
     0.166899136  0.749729583  0.500032369
     0.333354310  0.000007560  0.999993145
     0.333355924  0.000006750  0.500015488
     0.333303030  0.249989333  0.000082691
     0.332817621  0.249574845  0.499950505
     0.333280712  0.499981627  0.000481693
     0.333223370  0.497993968  0.498463333
     0.333368563  0.749952449  0.000128497
     0.333500264  0.749985014  0.499966631
     0.500003186  0.000042445  0.999960678
     0.500002036  0.000078315  0.500003857
     0.499977917  0.249973300  0.000301301
     0.499603112  0.250892905  0.499965193
     0.499959762  0.499984059  0.000581774
     0.500014610  0.750091987  0.999908144
     0.500199521  0.749926025  0.500011599
     0.666654701  0.000049326  0.999979009
     0.666628002  0.000147216  0.500004647
     0.666638130  0.250054794  0.000113309
     0.666695156  0.250139073  0.499944915
     0.666752268  0.500046294  0.000284767
     0.666519042  0.499947417  0.499186525
     0.666686767  0.750034373  0.000045662
     0.667001911  0.750526945  0.499913565
     0.833338460  0.000017318  0.000005099
     0.833382610  0.000077755  0.500008987
     0.833337645  0.249998985  0.999952517
     0.833278963  0.250048100  0.499992364
     0.833374663  0.500009915  0.000035999
     0.833921994  0.500020934  0.499916250
     0.833374297  0.750011710  0.000041248
     0.833439225  0.750071074  0.499998230
     0.083304354  0.124966001  0.999957196
     0.083234648  0.124898898  0.499985575
     0.083260864  0.374965608  0.999899483
     0.083039965  0.374869227  0.499980188
     0.083377342  0.624976275  0.000016111
     0.083519528  0.624922406  0.500014258
     0.083355600  0.874968792  0.000013131
     0.083412484  0.874893014  0.500018506
     0.249993637  0.124976500  0.999988287
     0.249833843  0.124827481  0.499972784
     0.249866994  0.374919759  0.999954997
     0.249282979  0.374600144  0.500051674
     0.249955410  0.624983324  0.000359717
     0.250724619  0.624245232  0.499984907
     0.250024021  0.874964793  0.000034908
     0.250064124  0.874981943  0.500003590
     0.416670331  0.125039391  0.999983158
     0.416656895  0.125132463  0.499992514
     0.416641704  0.374954678  0.000505868
     0.414625994  0.375891677  0.498442340
     0.416637322  0.624903407  0.000575690
     0.418571016  0.623621595  0.499419558
     0.416681907  0.875017559  0.999978180
     0.416728261  0.874995041  0.500002625
     0.583325100  0.125055397  0.000022831
     0.583170805  0.125318352  0.500003673
     0.583197128  0.375024375  0.000565607
     0.582881540  0.377102089  0.499439269
     0.583425066  0.625052006  0.000314359
     0.583183311  0.624954457  0.499156424
     0.583333264  0.875045672  0.999947911
     0.583392657  0.875094137  0.499995605
     0.749981174  0.125035047  0.000007225
     0.750009098  0.125057917  0.499987594
     0.750106445  0.374961961  0.999866342
     0.749947412  0.375221652  0.500002469
     0.750123692  0.625055140  0.000272053
     0.750058094  0.625042440  0.499833993
     0.750011911  0.875024747  0.999999435
     0.750129690  0.875243471  0.499988240
     0.916659458  0.124992961  0.999966067
     0.916641134  0.124999401  0.499995465
     0.916671744  0.374987143  0.999895911
     0.916616147  0.375002881  0.499975938
     0.916720001  0.625003930  0.000039338
     0.916817750  0.625037447  0.499992927
     0.916693811  0.874992663  0.000009541
     0.916741564  0.875016492  0.500019195
     0.999966284  0.083277305  0.333322277
     0.999989454  0.083313418  0.833312726
     0.999878914  0.333285879  0.333275532
     0.999952089  0.333321119  0.833271638
     0.000073511  0.583317025  0.333351166
     0.000043436  0.583319284  0.833355940
     0.000066640  0.833311158  0.333362691
     0.000040392  0.833287932  0.833334193
     0.166600344  0.083233196  0.333297635
     0.166677461  0.083301953  0.833322801
     0.166404884  0.333173304  0.333252396
     0.166596160  0.333284868  0.833293159
     0.166750571  0.583214731  0.333404483
     0.166775562  0.583231053  0.833226385
     0.166766055  0.833241373  0.333379690
     0.166731051  0.833265297  0.833332092
     0.333293171  0.083320035  0.333328333
     0.333332588  0.083351310  0.833306794
     0.332846219  0.332967563  0.333155825
     0.333272502  0.333338383  0.833427273
     0.333645019  0.583033735  0.333663072
     0.333157298  0.583342955  0.834190139
     0.333395333  0.833317643  0.333368417
     0.333374952  0.833275585  0.833336234
     0.499982251  0.083418578  0.333386419
     0.499992119  0.083428674  0.833280678
     0.499880336  0.333691352  0.333648026
     0.499935538  0.333183608  0.834181314
     0.500626210  0.583673734  0.334268616
     0.499996565  0.583368819  0.834044368
     0.500070339  0.833322171  0.333366536
     0.500017443  0.833339497  0.833275581
     0.666642177  0.083463279  0.333361434
     0.666654039  0.083410829  0.833297021
     0.666657391  0.333537645  0.333309269
     0.666586513  0.333449247  0.833423613
     0.666776208  0.583395906  0.333439648
     0.666907694  0.583449556  0.834123968
     0.666779433  0.833493720  0.333315494
     0.666678638  0.833344296  0.833306750
     0.833324292  0.083371684  0.333323660
     0.833299964  0.083360708  0.833317982
     0.833249970  0.333402268  0.333324148
     0.833302601  0.333356188  0.833236554
     0.833449300  0.583390483  0.333348429
     0.833348736  0.583330519  0.833341930
     0.833396273  0.833406278  0.333345746
     0.833344542  0.833333678  0.833337885
     0.083226388  0.208234023  0.333280775
     0.083313029  0.208305661  0.833296916
     0.083165525  0.458242289  0.333264474
     0.083323066  0.458317554  0.833347140
     0.083440026  0.708283500  0.333421561
     0.083434746  0.708263474  0.833316974
     0.083366203  0.958275406  0.333352493
     0.083370803  0.958295546  0.833348405
     0.249783966  0.208152121  0.333289180
     0.249971807  0.208319854  0.833376154
     0.249438902  0.458108005  0.333155141
     0.249983494  0.458274741  0.833455945
     0.250189759  0.708146679  0.333477481
     0.250119138  0.708244910  0.833343672
     0.250018307  0.958304113  0.333378031
     0.250027821  0.958304634  0.833370919
     0.416578270  0.208393256  0.333385442
     0.416606097  0.208446702  0.833216341
     0.415027372  0.457489199  0.335613568
     0.416502808  0.458238117  0.834172092
     0.416843776  0.708244340  0.333361729
     0.416711085  0.708220390  0.833441239
     0.416675971  0.958352787  0.333353427
     0.416666684  0.958353444  0.833304586
     0.583259148  0.208562916  0.333438526
     0.583336703  0.208462289  0.833315735
     0.583951449  0.458656734  0.334255651
     0.583358477  0.458316228  0.834052561
     0.583560377  0.708470067  0.333280036
     0.583370410  0.708301897  0.833371391
     0.583363902  0.958406636  0.333342549
     0.583339047  0.958386732  0.833292648
     0.749989950  0.208404399  0.333376719
     0.749953650  0.208413896  0.833355724
     0.750185273  0.458454507  0.333257361
     0.749967720  0.458384488  0.833395584
     0.750120399  0.708430809  0.333380847
     0.750011718  0.708347977  0.833366594
     0.750029452  0.958447708  0.333357805
     0.749992847  0.958368595  0.833355582
     0.916605629  0.208328643  0.333313231
     0.916619846  0.208339509  0.833297478
     0.916716642  0.458332399  0.333289285
     0.916625663  0.458349437  0.833329029
     0.916754304  0.708366081  0.333389776
     0.916681483  0.708308531  0.833345093
     0.916677519  0.958342173  0.333352947
     0.916657562  0.958327266  0.833347352
     0.999952738  0.166624286  0.166608937
     0.999945950  0.166637035  0.666631009
     0.999960086  0.416631798  0.166561396
     0.999918619  0.416652133  0.666656104
     0.000062606  0.666668822  0.166695426
     0.000090118  0.666627108  0.666668528
     0.000021534  0.916645277  0.166672507
     0.000041632  0.916623027  0.666668550
     0.166575782  0.166588133  0.166604260
     0.166599585  0.166607083  0.666670994
     0.166457403  0.416563285  0.166546318
     0.166545250  0.416577752  0.666714237
     0.166703148  0.666625534  0.166851932
     0.166934742  0.666465643  0.666581751
     0.166686190  0.916631311  0.166702439
     0.166724426  0.916592101  0.666678831
     0.333290148  0.166643302  0.166688976
     0.333291084  0.166714257  0.666675928
     0.332909319  0.416437008  0.166500155
     0.333240438  0.416606205  0.666798748
     0.333394976  0.666561653  0.167014937
     0.333819250  0.666293118  0.666403811
     0.333353575  0.916678797  0.166684015
     0.333387740  0.916627484  0.666665032
     0.499975155  0.166698198  0.166772668
     0.499926290  0.166954277  0.666548829
     0.499669520  0.416909910  0.167836971
     0.499831760  0.416879132  0.668747896
     0.500097952  0.667033161  0.166359188
     0.500158286  0.666354278  0.666558873
     0.500014298  0.916705813  0.166650618
     0.500020073  0.916691899  0.666629029
     0.666633454  0.166749956  0.166751215
     0.666587396  0.166880029  0.666641530
     0.667056174  0.416568467  0.166313657
     0.666400052  0.416973048  0.666584038
     0.666772305  0.666744456  0.166795754
     0.666503100  0.666531008  0.666486813
     0.666683167  0.916752903  0.166645101
     0.666663674  0.916732906  0.666653567
     0.833331530  0.166681440  0.166652975
     0.833277903  0.166736678  0.666657238
     0.833411312  0.416663442  0.166564810
     0.833224661  0.416743840  0.666642739
     0.833432552  0.666717459  0.166780931
     0.833303712  0.666643530  0.666642011
     0.833360191  0.916709182  0.166677385
     0.833355112  0.916703333  0.666689029
     0.083324358  0.041618731  0.166644796
     0.083336213  0.041610560  0.666665451
     0.083232472  0.291598243  0.166550929
     0.083247747  0.291612443  0.666633765
     0.083344772  0.541640361  0.166680580
     0.083393155  0.541606786  0.666689932
     0.083385889  0.791643363  0.166698479
     0.083443303  0.791569917  0.666651631
     0.249992755  0.041636440  0.166629729
     0.249997326  0.041634456  0.666641311
     0.249804025  0.291533400  0.166559825
     0.249875727  0.291599842  0.666675968
     0.249967037  0.541589463  0.166866548
     0.250368941  0.541320741  0.666104194
     0.250054616  0.791605824  0.166743735
     0.250153843  0.791510727  0.666636380
     0.416661977  0.041692711  0.166657329
     0.416658424  0.041733278  0.666628746
     0.416589236  0.291661417  0.166889371
     0.416517569  0.292098793  0.666070696
     0.416720002  0.541308854  0.167831332
     0.416791587  0.541417002  0.668746174
     0.416693906  0.791704312  0.166663440
     0.416759709  0.791529498  0.666636690
     0.583340018  0.041727503  0.166672304
     0.583312747  0.041805582  0.666614232
     0.583265467  0.291764894  0.166968099
     0.583215195  0.292208931  0.666392005
     0.583477304  0.541753618  0.167072756
     0.583282386  0.541646455  0.668688849
     0.583386012  0.791766126  0.166603042
     0.583364121  0.791616951  0.666622139
     0.749994614  0.041722879  0.166645474
     0.749976478  0.041753333  0.666633115
     0.750031258  0.291687616  0.166613155
     0.749881664  0.291842041  0.666613369
     0.750103805  0.541716175  0.166749357
     0.749768515  0.541627114  0.666487229
     0.750050645  0.791731838  0.166666992
     0.750020285  0.791683261  0.666657790
     0.916656811  0.041663941  0.166651473
     0.916647158  0.041671066  0.666661147
     0.916620219  0.291653055  0.166590957
     0.916591670  0.291686896  0.666613454
     0.916706014  0.541675594  0.166666851
     0.916655761  0.541673523  0.666694600
     0.916706163  0.791685121  0.166686057
     0.916706434  0.791646458  0.666669039
     0.999999042  0.999971085  0.124979937
     0.000006517  0.999960863  0.624996667
     0.999939805  0.249963705  0.124891677
     0.999918461  0.249973753  0.624955632
     0.000006116  0.500008989  0.124951055
     0.000006758  0.500000396  0.624988567
     0.000051320  0.750005473  0.124999739
     0.000078115  0.749973228  0.625002757
     0.166660934  0.999962467  0.124980931
     0.166665182  0.999934537  0.624989168
     0.166550261  0.249910599  0.124886324
     0.166554716  0.249911857  0.624981905
     0.166615596  0.499965779  0.125015071
     0.166623255  0.499878376  0.624939225
     0.166703049  0.749961358  0.125059053
     0.166822548  0.749842348  0.624970379
     0.333350806  0.000000382  0.124968299
     0.333357883  0.999993378  0.624978755
     0.333279084  0.249968285  0.125035090
     0.333207225  0.250001826  0.624905446
     0.333285860  0.499905424  0.125380410
     0.334176784  0.499376300  0.624612155
     0.333376906  0.749937642  0.125105616
     0.333493951  0.749798049  0.624920309
     0.500007447  0.000035506  0.124960116
     0.500001250  0.000054138  0.624966834
     0.499971360  0.249999250  0.125201479
     0.499880076  0.250444105  0.624795865
     0.500001131  0.500014248  0.125625879
     0.500031949  0.750137467  0.124667097
     0.500072184  0.749854373  0.624967291
     0.666662824  0.000059230  0.124954668
     0.666640701  0.000098887  0.624970933
     0.666620951  0.250074138  0.125083612
     0.666530220  0.250241243  0.624905813
     0.666762778  0.500033181  0.125030638
     0.666177786  0.500080558  0.624863233
     0.666716678  0.750049132  0.124992135
     0.666734085  0.750029018  0.624928535
     0.833343678  0.000027424  0.124975713
     0.833343032  0.000044276  0.624988132
     0.833320675  0.249995950  0.124921558
     0.833241233  0.250076400  0.624965951
     0.833389648  0.500036012  0.124963671
     0.833356625  0.500070033  0.624943025
     0.833402314  0.750033335  0.125011544
     0.833381636  0.750009771  0.624982898
     0.083281151  0.124943220  0.124934939
     0.083276113  0.124934134  0.624983130
     0.083215788  0.374952171  0.124836850
     0.083185949  0.374945660  0.624995169
     0.083376494  0.624994320  0.125031307
     0.083463973  0.624938496  0.624990687
     0.083354883  0.874972302  0.125006196
     0.083391535  0.874922509  0.624996927
     0.249969540  0.124962453  0.124963061
     0.249946742  0.124961611  0.624976451
     0.249748377  0.374870142  0.124760126
     0.249769646  0.374876273  0.625064128
     0.249990349  0.624971375  0.125255129
     0.250409971  0.624674136  0.624814784
     0.250024015  0.874968983  0.125032082
     0.250075282  0.874916862  0.624986538
     0.416666611  0.125018520  0.125000083
     0.416654582  0.125117398  0.624963745
     0.416563238  0.375001842  0.125422309
     0.416481751  0.375929862  0.624594661
     0.416725706  0.624900273  0.125599286
     0.417293499  0.624293434  0.624868696
     0.416672545  0.875017860  0.124971606
     0.416716557  0.874938855  0.624986357
     0.583313901  0.125051638  0.125032909
     0.583246237  0.125218495  0.624952939
     0.583234174  0.375098132  0.125580781
     0.582934243  0.375829093  0.624888167
     0.583411315  0.625094371  0.125064309
     0.583145798  0.624621558  0.624848475
     0.583356962  0.875058249  0.124927204
     0.583355298  0.875009334  0.624976149
     0.749976453  0.125049131  0.125001842
     0.749941673  0.125110159  0.624972432
     0.750144122  0.374964575  0.124608955
     0.749822736  0.375183855  0.624963416
     0.750131223  0.625074148  0.125122462
     0.749947947  0.624988678  0.624860070
     0.750032970  0.875053280  0.124978782
     0.750044194  0.875076530  0.624989580
     0.916650457  0.124984127  0.124953411
     0.916623582  0.125005339  0.624984094
     0.916667686  0.374998155  0.124857867
     0.916574615  0.375036634  0.624973816
     0.916737007  0.625031305  0.125018104
     0.916722699  0.625012980  0.624994553
     0.916703614  0.875005737  0.124996854
     0.916716028  0.874991381  0.625008181
     0.999955479  0.083265757  0.458334110
     0.999987693  0.083307036  0.958295522
     0.999826834  0.333275641  0.458308775
     0.999965722  0.333321275  0.958224536
     0.000133294  0.583331199  0.458341207
     0.000039206  0.583347814  0.958333366
     0.000084304  0.833305522  0.458358137
     0.000032683  0.833308963  0.958329749
     0.166570462  0.083189523  0.458311488
     0.166665556  0.083301430  0.958303894
     0.166215084  0.333075606  0.458319342
     0.166584086  0.333284478  0.958207806
     0.166831184  0.583124447  0.458357252
     0.166718403  0.583297767  0.958346133
     0.166806245  0.833184413  0.458356270
     0.166693852  0.833292019  0.958334564
     0.333304589  0.083337545  0.458320721
     0.333347189  0.083336541  0.958293008
     0.332352932  0.332384332  0.458342746
     0.333302080  0.333312930  0.958466770
     0.334644178  0.582206778  0.458086744
     0.333145266  0.583370859  0.958896634
     0.333328523  0.833337457  0.458367391
     0.333354948  0.833294726  0.958339417
     0.499968514  0.083442405  0.458369295
     0.500003826  0.083390064  0.958286196
     0.499533224  0.334868342  0.458076743
     0.499942224  0.333169832  0.958872212
     0.499997588  0.583361490  0.958842442
     0.500064610  0.833309104  0.458383515
     0.500005787  0.833363304  0.958205075
     0.666591229  0.083520575  0.458336568
     0.666651314  0.083375646  0.958297175
     0.666538318  0.333293782  0.458472727
     0.666596379  0.333389081  0.958489841
     0.666882113  0.583459693  0.458268477
     0.666906465  0.583455172  0.958721045
     0.666956894  0.833659767  0.458352688
     0.666682258  0.833353300  0.958283463
     0.833335113  0.083359791  0.458328736
     0.833316374  0.083344826  0.958305714
     0.833221311  0.333407030  0.458356381
     0.833353145  0.333319211  0.958132498
     0.833573279  0.583424301  0.458335010
     0.833389799  0.583358243  0.958358114
     0.833437761  0.833427981  0.458347624
     0.833363112  0.833337904  0.958320225
     0.083183963  0.208202116  0.458307898
     0.083306870  0.208299751  0.958264063
     0.083037271  0.458260414  0.458321666
[...]
 196       0.004     0.000    -0.007       0.557
 197       0.005     0.002    -0.008       0.394
 198      -0.001    -0.001     0.002       0.112
 199      -0.002    -0.001     0.003       0.110
 200      -0.002     0.000     0.002       1.069
 201       0.003     0.000    -0.003       0.923
 202       0.007     0.002    -0.008       0.623
 203       0.008     0.004    -0.012       0.299
 204       0.007     0.002    -0.009       0.515
 205       0.001    -0.001    -0.022       0.075
 206       0.001     0.000    -0.004       0.343
 207       0.003     0.001    -0.004       0.514
 208       0.004     0.003    -0.005       0.336
 209       0.003     0.002    -0.009       0.109
 210       0.013     0.011    -0.016       0.144
 211       0.018     0.016    -0.028       0.057
 212       0.013     0.010    -0.022       0.145
 213       0.060     0.020     0.067      -0.596
 214      -0.005     0.003     0.006       1.464
 215       0.005     0.004    -0.007       0.135
 216       0.007     0.003    -0.009       0.516
 217      -0.002     0.001    -0.023      -0.110
 218      -0.031     0.027     0.033       1.778
 219      -0.297    -0.229    -0.452      -0.149
 220      -0.191    -0.186    -0.326      -0.017
 221       0.086    -0.005     0.097      -0.939
 222      -0.007     0.004     0.008       1.271
 223       0.006     0.002    -0.012       0.350
 224       0.002    -0.002    -0.014       0.291
 225       0.010     0.006    -0.011       0.338
 226      -0.197    -0.192    -0.334      -0.016
 227       0.086    -0.006     0.097      -0.944
 228       0.020    -0.014     0.021      -1.607
 229       0.028     0.023    -0.031       0.158
 230      -0.006     0.003     0.006       1.371
 231       0.007     0.005    -0.007       0.344
 232       0.004    -0.004     0.005      -1.582
 233       0.005     0.003    -0.006       0.325
 234       0.019    -0.002     0.024      -0.875
 235      -0.019     0.014     0.019       1.740
 236       0.008    -0.006     0.011      -1.331
 237       0.010    -0.009     0.012      -1.599
 238       0.003     0.002    -0.003       0.394
 239       0.004     0.002    -0.004       0.518
 240      -0.002    -0.000     0.002       0.785
 241      -0.002    -0.000     0.003       0.652
 242      -0.004     0.001     0.004       1.351
 243       0.003     0.001    -0.006       0.389
 244       0.006     0.000    -0.009       0.657
 245       0.007     0.002    -0.012       0.380
 246       0.003     0.001    -0.003       0.508
 247       0.003     0.001    -0.005       0.406
 248       0.003     0.001    -0.003       0.436
 249       0.003     0.001    -0.004       0.488
 250       0.005     0.003    -0.007       0.239
 251       0.005     0.004    -0.010       0.114
 252      -0.012     0.009     0.015       1.371
 253       0.006     0.004    -0.036       0.059
 254      -0.001     0.000    -0.013      -0.114
 255       0.009     0.007    -0.009       0.204
 256      -0.005     0.002     0.005       1.410
 257       0.002    -0.000    -0.010       0.195
 258      -0.011     0.010     0.013       1.597
 259       0.006     0.003    -0.034       0.077
 260      -0.031     0.027     0.032       1.799
 261      -0.294    -0.227    -0.453      -0.148
 262       0.017    -0.004     0.022      -0.959
 263       0.016     0.012    -0.019       0.228
 264       0.006     0.002    -0.007       0.583
 265       0.003     0.000    -0.011       0.266
 266       0.013     0.010    -0.023       0.157
 267       0.061     0.021     0.069      -0.581
 268       0.088     0.052     0.109      -0.335
 269       0.090    -0.035     0.110      -1.137
 270       0.019    -0.003     0.023      -0.946
 271       0.018     0.014    -0.019       0.211
 272       0.002     0.000    -0.006       0.346
 273       0.005     0.003    -0.005       0.308
 274       0.017    -0.004     0.021      -0.997
 275       0.017     0.013    -0.018       0.200
 276       0.020    -0.014     0.022      -1.581
 277       0.028     0.023    -0.032       0.164
 278      -0.001     0.001    -0.014      -0.111
 279       0.008    -0.007     0.010      -1.493
 280      -0.002     0.001     0.002       1.208
 281      -0.003     0.001     0.003       1.130
 282      -0.005     0.004     0.006       1.493
 283       0.004     0.003    -0.010       0.124
 284       0.005    -0.001    -0.014       0.397
 285      -0.010     0.007     0.013       1.282
 286       0.003     0.002    -0.004       0.320
 287       0.004     0.002    -0.005       0.427
 288       0.002    -0.000    -0.002       1.014
 289      -0.002    -0.001     0.003       0.598
 290      -0.002    -0.000    -0.008      -0.212
 291       0.002    -0.000    -0.007       0.305
 292       0.004    -0.002    -0.009       0.678
 293      -0.008    -0.003    -0.024      -0.178
 294       0.002     0.000    -0.004       0.363
 295       0.004     0.002    -0.006       0.417
 296       0.002     0.000    -0.002       0.581
 297       0.002    -0.001    -0.005       0.623
 298       0.002     0.000    -0.004       0.446
 299       0.004     0.002    -0.006       0.440
 300      -0.004     0.003    -0.014      -0.461
 301       0.003    -0.001    -0.023       0.146
 302       0.002     0.000    -0.006       0.269
 303       0.006     0.005    -0.009       0.092
 304       0.003     0.000    -0.005       0.390
 305       0.003     0.002    -0.007       0.196
 306      -0.001     0.000    -0.012      -0.147
 307       0.008     0.007    -0.013       0.062
 308      -0.005     0.001    -0.035      -0.160
 309       0.041    -0.032     0.045      -1.611
 310       0.006     0.004    -0.012       0.153
 311       0.011     0.006    -0.032       0.126
 312      -0.003     0.002    -0.011      -0.412
 313       0.005     0.003    -0.010       0.223
 314       0.004     0.000    -0.018       0.186
 315      -0.056    -0.050    -0.094      -0.054
 316       0.036     0.000     0.058      -0.630
 317      -0.103    -0.091    -0.173      -0.065
 318      -0.036    -0.017    -0.089      -0.209
 319       0.004     0.001    -0.006       0.499
 320       0.004     0.002    -0.010       0.211
 321       0.006     0.003    -0.013       0.258
 322       0.011     0.006    -0.034       0.151
 323       0.028    -0.010     0.041      -0.946
 324      -0.558    -0.543    -0.810      -0.018
 325      -0.003     0.001    -0.021      -0.198
 326      -0.020    -0.018    -0.061      -0.040
 327       0.002     0.001    -0.003       0.347
 328       0.003    -0.002     0.005      -1.038
 329      -0.002    -0.000    -0.016      -0.149
 330       0.005     0.004    -0.013       0.133
 331      -0.003     0.001    -0.022      -0.175
 332      -0.020    -0.016    -0.062      -0.062
 333       0.002    -0.000    -0.007       0.289
 334       0.005     0.004    -0.011       0.153
 335       0.002    -0.001    -0.002       1.474
 336      -0.002    -0.001     0.003       0.046
 337       0.003    -0.002    -0.007       0.658
 338       0.006     0.003    -0.009       0.255
 339      -0.004     0.000    -0.011      -0.401
 340       0.008     0.005    -0.010       0.248
 341       0.002    -0.000    -0.002       0.815
 342       0.003    -0.001    -0.004       0.815
 343       0.002     0.000    -0.003       0.340
 344       0.004     0.002    -0.004       0.555
 345       0.007     0.002    -0.008       0.528
 346       0.012    -0.012     0.014      -1.773
 347       0.005     0.002    -0.017       0.214
 348      -0.051    -0.048    -0.090      -0.034
 349       0.003     0.002    -0.004       0.269
 350      -0.004    -0.003    -0.016      -0.072
 351      -0.004    -0.000    -0.010      -0.360
 352       0.006     0.004    -0.010       0.158
 353      -0.003     0.000    -0.034      -0.089
 354       0.045    -0.028     0.050      -1.464
 355      -0.015    -0.012    -0.059      -0.045
 356      -0.315    -0.266    -0.483      -0.102
 357      -0.004     0.001    -0.017      -0.267
 358       0.007     0.004    -0.014       0.272
 359       0.003    -0.002    -0.009       0.439
 360       0.008     0.005    -0.012       0.204
 361      -0.014    -0.012    -0.059      -0.047
 362      -0.320    -0.272    -0.490      -0.099
 363       0.028    -0.010     0.041      -0.920
 364      -0.547    -0.531    -0.797      -0.019
 365      -0.007    -0.002    -0.022      -0.224
 366       0.008     0.003    -0.015       0.310
 367       0.004     0.001    -0.005       0.483
 368      -0.002    -0.001    -0.016      -0.066
 369      -0.107    -0.096    -0.178      -0.062
 370      -0.035    -0.017    -0.089      -0.203
 371       0.011    -0.000    -0.011       1.008
 372       0.026    -0.002     0.048      -0.584
 373       0.002     0.000    -0.007       0.264
 374      -0.009    -0.007    -0.021      -0.073
 375       0.001     0.000    -0.004       0.253
 376       0.003     0.001    -0.004       0.595
 377      -0.007    -0.002    -0.021      -0.210
 378       0.007     0.004    -0.014       0.263
 379       0.002     0.000    -0.008       0.217
 380       0.007     0.004    -0.013       0.182
 381       0.001    -0.000    -0.003       0.606
 382       0.003    -0.000    -0.004       0.876
 383      -0.005    -0.000    -0.007      -0.605
 384       0.001     0.000    -0.001       0.690
 385       0.004     0.001    -0.016       0.161
 386       0.003    -0.002    -0.004       1.198
 387       0.013    -0.009     0.014      -1.612
 388       0.005    -0.002    -0.005       1.312
 389       0.004    -0.000    -0.005       0.985
 390       0.001     0.000    -0.001       0.264
 391       0.003    -0.001    -0.006       0.680
 392       0.001     0.000    -0.002       0.473
 393       0.006     0.003    -0.013       0.191
 394      -0.003    -0.001     0.004       0.392
 395       0.015     0.014    -0.017       0.085
 396      -0.003    -0.003     0.007       0.041
 397      -0.005    -0.002    -0.016      -0.196
 398      -0.001     0.001    -0.002      -0.807
 399       0.002     0.001    -0.009       0.186
 400       0.003     0.000    -0.003       0.793
 401      -0.024     0.020     0.024       1.821
 402       0.004    -0.003    -0.008       0.750
 403      -0.320    -0.282    -0.496      -0.077
 404      -0.008    -0.002    -0.023      -0.259
 405      -0.167    -0.160    -0.262      -0.025
 406      -0.003    -0.002     0.004       0.356
 407       0.007     0.006    -0.013       0.064
 408       0.004    -0.001    -0.005       1.198
 409      -0.339    -0.298    -0.511      -0.081
 410      -0.006    -0.002    -0.023      -0.203
 411       0.011     0.008    -0.025       0.109
 412      -0.082    -0.081    -0.163      -0.005
 413      -0.010     0.000    -0.019      -0.532
 414      -0.009    -0.009    -0.027      -0.034
 415       0.004    -0.001    -0.004       1.142
 416      -2.256    -2.239    -3.149      -0.005
 417      -0.020    -0.014    -0.036      -0.159
 418      -0.179    -0.026     0.180       0.848
 419       0.009     0.008    -0.016       0.098
 420      -0.106    -0.100    -0.181      -0.033
 421      -0.004    -0.002     0.005       0.333
 422      -0.006    -0.002    -0.026      -0.158
 423       0.002     0.000    -0.002       0.664
 424      -0.085    -0.084    -0.166      -0.007
 425      -0.009    -0.000    -0.018      -0.469
 426       0.029    -0.007     0.041      -0.881
 427       0.006    -0.002    -0.008       1.066
 428       0.010    -0.002     0.013      -0.853
 429       0.001    -0.001    -0.002       1.038
 430       0.004    -0.001    -0.005       1.198
 431       0.000     0.000    -0.002       0.153
 432       0.003     0.001    -0.027       0.074
 433       0.005    -0.003    -0.006       1.271
 434       0.003     0.001    -0.013       0.150
 435      -0.003    -0.001     0.003       0.610
 436      -0.004    -0.000    -0.007      -0.637
 437       0.001    -0.000    -0.002       0.667
 438       0.006     0.003    -0.008       0.361
 439       0.001    -0.001    -0.002       1.093
 440       0.024     0.022    -0.029       0.081
 441       0.005    -0.004    -0.008       1.179
 442      -0.007    -0.005    -0.050      -0.027
 443       0.004    -0.003    -0.006       1.025
 444      -0.025    -0.022    -0.042      -0.051
 445       0.002     0.001    -0.002       0.619
 446       0.008     0.007    -0.019       0.087
 447      -0.002    -0.002     0.005       0.157
 448       0.010     0.008    -0.017       0.163
 449      -2.238    -2.221    -3.109      -0.005
 450      -0.019    -0.013    -0.035      -0.163
 451       0.003     0.003    -0.018       0.031
 452       0.004    -0.002    -0.005       1.050
 453      -0.007    -0.006    -0.052      -0.016
 454      -0.004     0.004    -0.007      -1.290
 455       0.011     0.008    -0.025       0.122
 456      -1.783    -1.757    -2.528      -0.010
 457       0.007     0.002    -0.017       0.245
 458       0.003     0.002    -0.020       0.049
 459       0.004    -0.002    -0.006       1.029
 460      -0.171    -0.164    -0.267      -0.027
 461      -0.003    -0.002     0.004       0.336
 462      -1.793    -1.766    -2.557      -0.011
 463       0.008     0.002    -0.017       0.320
 464       0.027    -0.006     0.040      -0.823
 465       0.004    -0.000    -0.007       0.646
 466      -0.029    -0.028    -0.045      -0.015
 467       0.003     0.000    -0.003       0.845
 468      -0.002     0.001    -0.017      -0.190
 469       0.002    -0.001    -0.003       0.906
 470      -0.101    -0.094    -0.181      -0.042
 471      -0.004    -0.003     0.007       0.213
 472       0.008    -0.006     0.011      -1.327
 473      -0.003    -0.002     0.003       0.425
 474      -0.009    -0.003    -0.010      -0.620
 475       0.001     0.000    -0.002       0.267
 476      -0.002     0.001    -0.008      -0.407
 477       0.001     0.000    -0.002       0.626
 478      -0.005    -0.002    -0.024      -0.145
 479      -0.006     0.000     0.006       0.985
 480       0.004     0.003    -0.009       0.132
 481       0.005     0.000    -0.005       0.821
 482      -0.002     0.002    -0.002      -1.848
 483       0.001    -0.001    -0.001       1.702
 484       0.003    -0.001    -0.004       1.140
 485       0.001    -0.000    -0.002       0.582
 486       0.006     0.003    -0.015       0.202
 487       0.007     0.001    -0.007       0.808
 488       0.003     0.003    -0.018       0.050
 489       0.006     0.001    -0.008       0.620
 490       0.003     0.001    -0.004       0.569
 491       0.002     0.001    -0.003       0.315
 492      -0.003    -0.001    -0.014      -0.179
 493       0.004     0.002    -0.005       0.431
 494       0.009     0.006    -0.043       0.055
 495      -0.013     0.011     0.014       1.669
 496      -0.034    -0.020    -0.087      -0.156
 497       0.008     0.002    -0.021       0.257
 498      -0.003    -0.002    -0.020      -0.020
 499       0.004     0.001    -0.005       0.584
 500      -0.006    -0.001    -0.023      -0.241
 501       0.006     0.001    -0.008       0.635
 502      -0.576    -0.562    -0.826      -0.017
 503       0.051    -0.001     0.055      -0.940
 504      -1.710    -1.680    -2.440      -0.012
 505      -0.056    -0.051    -0.116      -0.042
 506      -0.016    -0.014    -0.047      -0.050
 507       0.005    -0.003    -0.008       1.002
 508       0.007     0.005    -0.014       0.102
 509       0.005     0.000    -0.009       0.542
 510      -1.739    -1.708    -2.485      -0.013
 511      -0.058    -0.052    -0.118      -0.043
 512      -0.052     0.001    -0.090      -0.582
 513      -0.007    -0.006    -0.040      -0.038
 514      -0.006    -0.005    -0.025      -0.042
 515       0.005     0.000    -0.006       0.744
 516      -0.003    -0.002    -0.019      -0.096
 517       0.003     0.001    -0.004       0.395
 518      -0.092    -0.091    -0.182      -0.009
 519      -0.013    -0.006    -0.030      -0.268
 520       0.011    -0.003    -0.013       1.107
 521       0.007     0.003    -0.008       0.495
 522       0.003     0.000    -0.006       0.522
 523       0.002     0.001    -0.003       0.331
 524       0.002    -0.001    -0.003       1.054
 525       0.002    -0.000    -0.002       1.061
 526      -0.002     0.002    -0.010      -0.366
 527       0.003     0.000    -0.004       0.592
 528      -0.002     0.002    -0.018      -0.178
 529      -0.006     0.001     0.008       0.951
 530       0.003     0.001    -0.006       0.431
 531       0.002     0.001    -0.003       0.522
 532       0.002    -0.001    -0.006       0.385
 533       0.002     0.001    -0.003       0.303
 534       0.005     0.003    -0.012       0.159
 535       0.005     0.003    -0.005       0.373
 536      -0.059    -0.058    -0.114      -0.012
 537       0.009    -0.008     0.016      -1.089
 538       0.007     0.005    -0.012       0.155
 539       0.003     0.001    -0.008       0.278
 540      -0.001     0.001    -0.014      -0.151
 541       0.004     0.000    -0.006       0.568
 542      -0.057    -0.053    -0.109      -0.035
 543       0.010    -0.008     0.013      -1.343
 544      -0.587    -0.571    -0.834      -0.019
 545       0.050    -0.002     0.053      -0.988
 546      -0.083    -0.081    -0.164      -0.017
 547      -0.014    -0.007    -0.030      -0.209
 548      -0.003    -0.000    -0.017      -0.138
 549       0.004    -0.000    -0.007       0.654
 550      -0.037    -0.022    -0.089      -0.168
 551       0.008     0.002    -0.021       0.274
 552       0.166    -0.046    -0.215       0.986
 553       0.025     0.020    -0.037       0.124
 554      -0.094    -0.092    -0.182      -0.011
 555      -0.013    -0.006    -0.029      -0.252
 556       0.002     0.002    -0.008       0.093
 557       0.003     0.000    -0.005       0.543
 558      -0.084    -0.081    -0.166      -0.014
 559      -0.014    -0.008    -0.030      -0.174
 560      -0.053     0.000    -0.090      -0.599
 561      -0.009    -0.005    -0.041      -0.092
 562      -0.006    -0.001    -0.024      -0.217
 563       0.005     0.003    -0.007       0.386
 564       0.002    -0.001    -0.005       0.634
 565       0.001    -0.000    -0.003       0.415
 566      -0.020    -0.019    -0.049      -0.026
 567       0.003    -0.003    -0.006       0.928
 568      -0.006    -0.003    -0.027      -0.091
 569       0.008     0.001    -0.008       0.841
 570       0.004     0.001    -0.006       0.519
 571       0.002     0.001    -0.003       0.354
 572       0.650     0.562     0.767      -0.114
 573      -0.241    -0.036     0.400       0.512
 574     -14.802   -14.756   -25.709      -0.002
 575     -14.996   -14.950   -26.141      -0.002
 576       0.609     0.529     0.726      -0.110
 ---------------------------------------------------------------------



--------------------------------------------------------------------------------------------------------


     LOOP+:  cpu time 8323.7914: real time 8342.3803
    4ORBIT:  cpu time    0.0000: real time    0.0000

 total amount of memory used by VASP MPI-rank0  4440324. kBytes
=======================================================================

   base      :      30000. kBytes
   nonlr-proj:      49140. kBytes
   fftplans  :     259276. kBytes
   grid      :     805701. kBytes
   one-center:       1769. kBytes
   wavefun   :    3294438. kBytes
 
  
  
 General timing and accounting informations for this job:
 ========================================================
  
                  Total CPU time used (sec):     8451.969
                            User time (sec):     8440.962
                          System time (sec):       11.006
                         Elapsed time (sec):     8471.191
  
                   Maximum memory used (kb):     5297564.
                   Average memory used (kb):          N/A
  
                          Minor page faults:      9994883
                          Major page faults:            0
                 Voluntary context switches:        92890
