 vasp.6.2.0 18Jan21 (build Apr 30 2021 19:00:08) gamma-only                     
  
 executed on             LinuxIFC date 2022.12.30  16:22:36
 running on   24 total cores
 distrk:  each k-point on   24 cores,    1 groups
 distr:  one band on NCORE=   6 cores,    4 groups


--------------------------------------------------------------------------------------------------------


 INCAR:
   SYSTEM = Diamond
   PREC = Normal
   ISTART = 0
   ICHARG = 11
   ISPIN = 2
   MAGMOM = 572*0.0 1*2.0 2*2.0 1*3
   NPAR = 4
   NELECT = 2303
   LHYPERFINE = T
   LEFG = T
   ENCUT = 700
   NELM = 1000
   NELMIN = 4
   EDIFF = 1E-06
   LREAL = Auto
   ALGO = Normal
   EDIFFG = -1E-02
   NSW = 0
   IBRION = 2
   ISIF = 2
   ISYM = 2
   POTIM = 0.5
   ISMEAR = 0
   SIGMA = 0.05
   NEDOS = 1000
   LWAVE = F
   LCHARG = F
   LVHAR = F
   LELF = F

 POTCAR:    PAW_PBE C 08Apr2002                   
 POTCAR:    PAW_PBE H 15Jun2001                   
 POTCAR:    PAW_PBE C 08Apr2002                   
 POTCAR:    PAW_PBE N 08Apr2002                   
 POTCAR:    PAW_PBE C 08Apr2002                   
   VRHFIN =C: s2p2                                                                                  
   LEXCH  = PE                                                                                      
   EATOM  =   147.1560 eV,   10.8157 Ry                                                             
                                                                                                    
   TITEL  = PAW_PBE C 08Apr2002                                                                     
   LULTRA =        F    use ultrasoft PP ?                                                          
   IUNSCR =        1    unscreen: 0-lin 1-nonlin 2-no                                               
   RPACOR =    1.200    partial core radius                                                         
   POMASS =   12.011; ZVAL   =    4.000    mass and valenz                                          
   RCORE  =    1.500    outmost cutoff radius                                                       
   RWIGS  =    1.630; RWIGS  =    0.863    wigner-seitz radius (au A)                               
   ENMAX  =  400.000; ENMIN  =  300.000 eV                                                          
   ICORE  =        2    local potential                                                             
   LCOR   =        T    correct aug charges                                                         
   LPAW   =        T    paw PP                                                                      
   EAUG   =  644.873                                                                                
   DEXC   =    0.000                                                                                
   RMAX   =    1.529    core radius for proj-oper                                                   
   RAUG   =    1.300    factor for augmentation sphere                                              
   RDEP   =    1.501    radius for radial grids                                                     
   RDEPT  =    1.300    core radius for aug-charge                                                  
                                                                                                    
   Atomic configuration                                                                             
    4 entries                                                                                       
     n  l   j            E        occ.                                                              
     1  0  0.50      -273.3789   2.0000                                                             
     2  0  0.50       -13.7508   2.0000                                                             
     2  1  0.50        -5.2854   2.0000                                                             
     3  2  1.50        -5.4423   0.0000                                                             
   Description                                                                                      
     l       E           TYP  RCUT    TYP  RCUT                                                     
     0    -13.7508458     23  1.200                                                                 
     0     -8.2022199     23  1.200                                                                 
     1     -5.2854383     23  1.500                                                                 
     1     34.0145650     23  1.500                                                                 
     2     -5.4423304      7  1.500                                                                 
  local pseudopotential read in
  partial core-charges read in
  partial kinetic energy density read in
  atomic valenz-charges read in
  non local Contribution for L=           0  read in
    real space projection operators read in
  non local Contribution for L=           0  read in
    real space projection operators read in
  non local Contribution for L=           1  read in
    real space projection operators read in
  non local Contribution for L=           1  read in
    real space projection operators read in
    PAW grid and wavefunctions read in
 
   number of l-projection  operators is LMAX  =           4
   number of lm-projection operators is LMMAX =           8
 
 POTCAR:    PAW_PBE H 15Jun2001                   
   VRHFIN =H: ultrasoft test                                                                        
   LEXCH  = PE                                                                                      
   EATOM  =    12.4884 eV,    0.9179 Ry                                                             
                                                                                                    
   TITEL  = PAW_PBE H 15Jun2001                                                                     
   LULTRA =        F    use ultrasoft PP ?                                                          
   IUNSCR =        0    unscreen: 0-lin 1-nonlin 2-no                                               
   RPACOR =    0.000    partial core radius                                                         
   POMASS =    1.000; ZVAL   =    1.000    mass and valenz                                          
   RCORE  =    1.100    outmost cutoff radius                                                       
   RWIGS  =    0.700; RWIGS  =    0.370    wigner-seitz radius (au A)                               
   ENMAX  =  250.000; ENMIN  =  200.000 eV                                                          
   RCLOC  =    0.701    cutoff for local pot                                                        
   LCOR   =        T    correct aug charges                                                         
   LPAW   =        T    paw PP                                                                      
   EAUG   =  400.000                                                                                
   RMAX   =    1.123    core radius for proj-oper                                                   
   RAUG   =    1.200    factor for augmentation sphere                                              
   RDEP   =    1.112    radius for radial grids                                                     
   RDEPT  =    0.926    core radius for aug-charge                                                  
                                                                                                    
   Atomic configuration                                                                             
    2 entries                                                                                       
     n  l   j            E        occ.                                                              
     1  0  0.50        -6.4927   1.0000                                                             
     2  1  0.50        -3.4015   0.0000                                                             
   Description                                                                                      
     l       E           TYP  RCUT    TYP  RCUT                                                     
     0     -6.4927494     23  1.100                                                                 
     0      6.8029130     23  1.100                                                                 
     1     -4.0817478     23  1.100                                                                 
  local pseudopotential read in
  atomic valenz-charges read in
  non local Contribution for L=           0  read in
    real space projection operators read in
  non local Contribution for L=           0  read in
    real space projection operators read in
  non local Contribution for L=           1  read in
    real space projection operators read in
    PAW grid and wavefunctions read in
 
   number of l-projection  operators is LMAX  =           3
   number of lm-projection operators is LMMAX =           5
 
 POTCAR:    PAW_PBE C 08Apr2002                   
   VRHFIN =C: s2p2                                                                                  
   LEXCH  = PE                                                                                      
   EATOM  =   147.1560 eV,   10.8157 Ry                                                             
                                                                                                    
   TITEL  = PAW_PBE C 08Apr2002                                                                     
   LULTRA =        F    use ultrasoft PP ?                                                          
   IUNSCR =        1    unscreen: 0-lin 1-nonlin 2-no                                               
   RPACOR =    1.200    partial core radius                                                         
   POMASS =   12.011; ZVAL   =    4.000    mass and valenz                                          
   RCORE  =    1.500    outmost cutoff radius                                                       
   RWIGS  =    1.630; RWIGS  =    0.863    wigner-seitz radius (au A)                               
   ENMAX  =  400.000; ENMIN  =  300.000 eV                                                          
   ICORE  =        2    local potential                                                             
   LCOR   =        T    correct aug charges                                                         
   LPAW   =        T    paw PP                                                                      
   EAUG   =  644.873                                                                                
   DEXC   =    0.000                                                                                
   RMAX   =    1.529    core radius for proj-oper                                                   
   RAUG   =    1.300    factor for augmentation sphere                                              
   RDEP   =    1.501    radius for radial grids                                                     
   RDEPT  =    1.300    core radius for aug-charge                                                  
                                                                                                    
   Atomic configuration                                                                             
    4 entries                                                                                       
     n  l   j            E        occ.                                                              
     1  0  0.50      -273.3789   2.0000                                                             
     2  0  0.50       -13.7508   2.0000                                                             
     2  1  0.50        -5.2854   2.0000                                                             
     3  2  1.50        -5.4423   0.0000                                                             
   Description                                                                                      
     l       E           TYP  RCUT    TYP  RCUT                                                     
     0    -13.7508458     23  1.200                                                                 
     0     -8.2022199     23  1.200                                                                 
     1     -5.2854383     23  1.500                                                                 
     1     34.0145650     23  1.500                                                                 
     2     -5.4423304      7  1.500                                                                 
  local pseudopotential read in
  partial core-charges read in
  partial kinetic energy density read in
  atomic valenz-charges read in
  non local Contribution for L=           0  read in
    real space projection operators read in
  non local Contribution for L=           0  read in
    real space projection operators read in
  non local Contribution for L=           1  read in
    real space projection operators read in
  non local Contribution for L=           1  read in
    real space projection operators read in
    PAW grid and wavefunctions read in
 
   number of l-projection  operators is LMAX  =           4
   number of lm-projection operators is LMMAX =           8
 
 POTCAR:    PAW_PBE N 08Apr2002                   
   VRHFIN =N: s2p3                                                                                  
   LEXCH  = PE                                                                                      
   EATOM  =   264.5486 eV,   19.4438 Ry                                                             
                                                                                                    
   TITEL  = PAW_PBE N 08Apr2002                                                                     
   LULTRA =        F    use ultrasoft PP ?                                                          
   IUNSCR =        1    unscreen: 0-lin 1-nonlin 2-no                                               
   RPACOR =    1.200    partial core radius                                                         
   POMASS =   14.001; ZVAL   =    5.000    mass and valenz                                          
   RCORE  =    1.500    outmost cutoff radius                                                       
   RWIGS  =    1.400; RWIGS  =    0.741    wigner-seitz radius (au A)                               
   ENMAX  =  400.000; ENMIN  =  300.000 eV                                                          
   ICORE  =        2    local potential                                                             
   LCOR   =        T    correct aug charges                                                         
   LPAW   =        T    paw PP                                                                      
   EAUG   =  627.112                                                                                
   DEXC   =    0.000                                                                                
   RMAX   =    1.529    core radius for proj-oper                                                   
   RAUG   =    1.300    factor for augmentation sphere                                              
   RDEP   =    1.514    radius for radial grids                                                     
   RDEPT  =    1.338    core radius for aug-charge                                                  
                                                                                                    
   Atomic configuration                                                                             
    4 entries                                                                                       
     n  l   j            E        occ.                                                              
     1  0  0.50      -384.7179   2.0000                                                             
     2  0  0.50       -18.5828   2.0000                                                             
     2  1  0.50        -7.0898   3.0000                                                             
     3  2  1.50        -6.8029   0.0000                                                             
   Description                                                                                      
     l       E           TYP  RCUT    TYP  RCUT                                                     
     0    -18.5828119     23  1.200                                                                 
     0    -13.5018863     23  1.200                                                                 
     1     -7.0897853     23  1.500                                                                 
     1      9.5240782     23  1.500                                                                 
     2     -6.8029130      7  1.500                                                                 
  local pseudopotential read in
  partial core-charges read in
  partial kinetic energy density read in
  atomic valenz-charges read in
  non local Contribution for L=           0  read in
    real space projection operators read in
  non local Contribution for L=           0  read in
    real space projection operators read in
  non local Contribution for L=           1  read in
    real space projection operators read in
  non local Contribution for L=           1  read in
    real space projection operators read in
    PAW grid and wavefunctions read in
 
   number of l-projection  operators is LMAX  =           4
   number of lm-projection operators is LMMAX =           8
 
 Optimization of the real space projectors (new method)

 maximal supplied QI-value         = 25.13
 optimisation between [QCUT,QGAM] = [ 13.32, 26.89] = [ 49.69,202.52] Ry 
 Optimized for a Real-space Cutoff    1.01 Angstroem

   l    n(q)    QCUT    max X(q) W(low)/X(q) W(high)/X(q)  e(spline) 
   0      8    13.321   115.676    0.29E-03    0.42E-03    0.11E-06
   0      8    13.321    87.132    0.29E-03    0.42E-03    0.11E-06
   1      8    13.321     4.429    0.39E-03    0.33E-03    0.98E-07
   1      8    13.321     2.733    0.30E-03    0.26E-03    0.97E-07
 Optimization of the real space projectors (new method)

 maximal supplied QI-value         = 34.20
 optimisation between [QCUT,QGAM] = [ 13.34, 27.02] = [ 49.83,204.46] Ry 
 Optimized for a Real-space Cutoff    0.93 Angstroem

   l    n(q)    QCUT    max X(q) W(low)/X(q) W(high)/X(q)  e(spline) 
   0      7    13.340    19.460    0.47E-03    0.72E-04    0.17E-06
   0      7    13.340    12.209    0.45E-03    0.63E-04    0.16E-06
   1      7    13.340     4.655    0.21E-03    0.61E-03    0.12E-06
 Optimization of the real space projectors (new method)

 maximal supplied QI-value         = 25.13
 optimisation between [QCUT,QGAM] = [ 13.32, 26.89] = [ 49.69,202.52] Ry 
 Optimized for a Real-space Cutoff    1.01 Angstroem

   l    n(q)    QCUT    max X(q) W(low)/X(q) W(high)/X(q)  e(spline) 
   0      8    13.321   115.676    0.29E-03    0.42E-03    0.11E-06
   0      8    13.321    87.132    0.29E-03    0.42E-03    0.11E-06
   1      8    13.321     4.429    0.39E-03    0.33E-03    0.98E-07
   1      8    13.321     2.733    0.30E-03    0.26E-03    0.97E-07
 Optimization of the real space projectors (new method)

 maximal supplied QI-value         = 25.13
 optimisation between [QCUT,QGAM] = [ 13.32, 26.89] = [ 49.69,202.52] Ry 
 Optimized for a Real-space Cutoff    1.01 Angstroem

   l    n(q)    QCUT    max X(q) W(low)/X(q) W(high)/X(q)  e(spline) 
   0      8    13.321    79.467    0.28E-03    0.38E-03    0.11E-06
   0      8    13.321    66.151    0.27E-03    0.38E-03    0.11E-06
   1      8    13.321    23.070    0.40E-03    0.78E-03    0.29E-06
   1      8    13.321    16.668    0.40E-03    0.79E-03    0.30E-06
  PAW_PBE C 08Apr2002                   :
 energy of atom  1       EATOM= -147.1560
 kinetic energy error for atom=    0.0032 (will be added to EATOM!!)
  PAW_PBE H 15Jun2001                   :
 energy of atom  2       EATOM=  -12.4884
 kinetic energy error for atom=    0.0002 (will be added to EATOM!!)
  PAW_PBE C 08Apr2002                   :
 energy of atom  3       EATOM= -147.1560
 kinetic energy error for atom=    0.0032 (will be added to EATOM!!)
  PAW_PBE N 08Apr2002                   :
 energy of atom  4       EATOM= -264.5486
 kinetic energy error for atom=    0.0061 (will be added to EATOM!!)
 
 
 POSCAR: Autosave
  positions in direct lattice
  velocities in cartesian coordinates
 exchange correlation table for  LEXCH =        8
   RHO(1)=    0.500       N(1)  =     2000
   RHO(2)=  100.500       N(2)  =     4000
 


--------------------------------------------------------------------------------------------------------


 ion  position               nearest neighbor table
   1  1.000  1.000  1.000- 288 1.55 437 1.55 384 1.55 475 1.55
   2  1.000  1.000  0.500- 436 1.55 383 1.55 289 1.55 474 1.55
   3  0.000  0.250  1.000- 290 1.55 431 1.55 386 1.55 469 1.55
   4  0.000  0.250  0.500- 430 1.55 468 1.55 291 1.55 385 1.55
   5  1.000  0.500  1.000- 292 1.55 433 1.55 388 1.55 471 1.55
   6  1.000  0.500  0.500- 432 1.54 470 1.54 293 1.55 387 1.55
   7  1.000  0.750  1.000- 294 1.55 435 1.55 390 1.55 473 1.55
   8  1.000  0.750  0.500- 295 1.55 434 1.55 389 1.55 472 1.55
   9  0.167  0.000  0.000- 296 1.55 392 1.55 445 1.55 437 1.55
  10  0.167  0.000  0.500- 391 1.54 444 1.55 436 1.55 297 1.55
  11  0.167  0.250  0.000- 298 1.55 439 1.55 394 1.55 431 1.55
  12  0.167  0.250  0.500- 430 1.55 299 1.55 393 1.55 438 1.55
  13  0.167  0.500  0.000- 300 1.55 441 1.55 396 1.55 433 1.55
  14  0.166  0.500  0.500- 440 1.54 432 1.54 301 1.55 395 1.55
  15  0.167  0.750  0.000- 443 1.55 302 1.55 398 1.55 435 1.55
  16  0.167  0.750  0.500- 442 1.55 303 1.55 434 1.55 397 1.55
  17  0.333  0.000  1.000- 304 1.55 400 1.55 452 1.55 445 1.55
  18  0.333  0.000  0.500- 451 1.55 305 1.55 399 1.55 444 1.55
  19  0.333  0.250  0.000- 402 1.55 306 1.55 447 1.55 439 1.55
  20  0.333  0.250  0.500- 401 1.54 438 1.54 307 1.55 446 1.55
  21  0.333  0.500  0.000- 308 1.55 448 1.55 404 1.55 441 1.55
  22  0.334  0.499  0.500- 575 1.49 309 1.55 440 1.55 403 1.56
  23  0.333  0.750  0.000- 310 1.55 450 1.55 406 1.55 443 1.55
  24  0.333  0.751  0.500- 449 1.54 405 1.54 311 1.55 442 1.55
  25  0.500  0.000  1.000- 408 1.55 312 1.55 452 1.55 459 1.55
  26  0.500  0.000  0.500- 313 1.55 407 1.55 451 1.55 458 1.55
  27  0.500  0.250  0.000- 410 1.54 314 1.54 454 1.55 447 1.55
  28  0.500  0.251  0.500- 315 1.54 453 1.55 446 1.55 409 1.56
  29  0.500  0.500  0.000- 411 1.55 448 1.55 455 1.55 316 1.55
  30  0.500  0.750  1.000- 317 1.54 413 1.55 450 1.55 457 1.55
  31  0.500  0.750  0.500- 412 1.54 318 1.55 449 1.55 456 1.55
  32  0.667  0.000  1.000- 319 1.55 459 1.55 415 1.55 467 1.55
  33  0.667  0.000  0.500- 414 1.55 458 1.55 320 1.55 466 1.55
  34  0.667  0.250  1.000- 321 1.55 454 1.55 417 1.55 461 1.55
  35  0.667  0.250  0.500- 416 1.54 460 1.54 453 1.55 322 1.55
  36  0.667  0.500  0.000- 323 1.55 455 1.55 419 1.55 463 1.55
  37  0.667  0.498  0.498- 576 1.48 462 1.54 324 1.56 418 1.56
  38  0.667  0.750  1.000- 325 1.55 457 1.55 465 1.55 421 1.55
  39  0.667  0.751  0.500- 456 1.54 420 1.54 326 1.55 464 1.55
  40  0.833  0.000  1.000- 327 1.55 475 1.55 423 1.55 467 1.55
  41  0.833  0.000  0.500- 422 1.55 466 1.55 474 1.55 328 1.55
  42  0.833  0.250  1.000- 329 1.55 469 1.55 461 1.55 425 1.55
  43  0.834  0.250  0.500- 468 1.54 424 1.55 330 1.55 460 1.55
  44  0.833  0.500  1.000- 331 1.55 471 1.55 427 1.55 463 1.55
  45  0.834  0.500  0.500- 462 1.54 470 1.54 332 1.55 426 1.55
  46  0.833  0.750  1.000- 333 1.55 473 1.55 429 1.55 465 1.55
  47  0.833  0.750  0.500- 334 1.55 472 1.55 464 1.55 428 1.55
  48  0.083  0.125  1.000- 335 1.55 392 1.55 431 1.55 384 1.55
  49  0.083  0.125  0.500- 383 1.55 391 1.55 430 1.55 336 1.55
  50  0.083  0.375  1.000- 337 1.55 394 1.55 433 1.55 386 1.55
  51  0.083  0.375  0.500- 385 1.54 393 1.55 338 1.55 432 1.55
  52  0.083  0.625  0.000- 396 1.55 339 1.55 435 1.55 388 1.55
  53  0.083  0.625  0.500- 395 1.55 340 1.55 434 1.55 387 1.55
  54  0.083  0.875  0.000- 341 1.55 437 1.55 398 1.55 390 1.55
  55  0.083  0.875  0.500- 436 1.55 397 1.55 342 1.55 389 1.55
  56  0.250  0.125  0.000- 343 1.55 439 1.55 400 1.55 392 1.55
  57  0.250  0.125  0.500- 438 1.54 391 1.55 399 1.55 344 1.55
  58  0.250  0.375  0.000- 345 1.54 402 1.55 441 1.55 394 1.55
  59  0.250  0.375  0.500- 393 1.55 346 1.55 401 1.55 440 1.55
  60  0.250  0.625  0.000- 404 1.54 347 1.54 443 1.55 396 1.55
  61  0.250  0.625  0.500- 348 1.55 395 1.55 403 1.55 442 1.55
  62  0.250  0.875  1.000- 349 1.55 445 1.55 406 1.55 398 1.55
  63  0.250  0.875  0.500- 405 1.54 444 1.55 350 1.55 397 1.55
  64  0.417  0.125  0.000- 447 1.55 351 1.55 408 1.55 400 1.55
  65  0.417  0.125  0.500- 352 1.55 407 1.55 446 1.55 399 1.55
  66  0.417  0.375  0.001- 448 1.55 410 1.55 353 1.55 402 1.55
  67  0.416  0.376  0.500- 575 1.49 354 1.55 409 1.55 401 1.55
  68  0.417  0.625  0.000- 355 1.55 404 1.55 411 1.55 450 1.55
  69  0.417  0.626  0.499- 572 1.52 449 1.54 403 1.55 356 1.55
  70  0.417  0.875  1.000- 357 1.55 452 1.55 406 1.55 413 1.55
  71  0.417  0.875  0.500- 451 1.55 358 1.55 412 1.55 405 1.55
  72  0.583  0.125  1.000- 454 1.55 408 1.55 415 1.55 359 1.55
  73  0.583  0.125  0.500- 360 1.55 407 1.55 453 1.55 414 1.55
  74  0.583  0.375  0.000- 361 1.55 410 1.55 455 1.55 417 1.55
  75  0.585  0.376  0.498- 576 1.48 416 1.55 409 1.56 362 1.56
  76  0.583  0.625  0.000- 411 1.55 419 1.55 363 1.55 457 1.55
  77  0.583  0.626  0.499- 572 1.52 456 1.54 364 1.55 418 1.55
  78  0.583  0.875  1.000- 365 1.55 459 1.55 413 1.55 421 1.55
  79  0.583  0.875  0.500- 458 1.55 412 1.55 366 1.55 420 1.55
  80  0.750  0.125  1.000- 367 1.55 461 1.55 415 1.55 423 1.55
  81  0.750  0.125  0.500- 460 1.54 422 1.55 368 1.55 414 1.55
  82  0.750  0.375  1.000- 369 1.54 425 1.55 417 1.55 463 1.55
  83  0.751  0.375  0.500- 424 1.54 370 1.55 416 1.55 462 1.55
  84  0.750  0.625  1.000- 419 1.55 371 1.55 427 1.55 465 1.55
  85  0.750  0.624  0.500- 372 1.54 426 1.55 464 1.55 418 1.55
  86  0.750  0.875  1.000- 373 1.55 467 1.55 429 1.55 421 1.55
  87  0.750  0.875  0.500- 420 1.54 466 1.55 374 1.55 428 1.55
  88  0.917  0.125  1.000- 375 1.55 384 1.55 469 1.55 423 1.55
  89  0.917  0.125  0.500- 383 1.55 468 1.55 422 1.55 376 1.55
  90  0.917  0.375  1.000- 377 1.55 386 1.55 471 1.55 425 1.55
  91  0.917  0.375  0.500- 385 1.54 424 1.55 378 1.55 470 1.55
  92  0.917  0.625  1.000- 388 1.55 473 1.55 379 1.55 427 1.55
  93  0.917  0.625  0.500- 380 1.55 472 1.55 426 1.55 387 1.55
  94  0.917  0.875  1.000- 381 1.55 390 1.55 475 1.55 429 1.55
  95  0.917  0.875  0.500- 389 1.55 382 1.55 474 1.55 428 1.55
  96  0.000  0.083  0.333- 524 1.55 476 1.55 383 1.55 564 1.55
  97  1.000  0.083  0.833- 384 1.55 477 1.55 525 1.55 565 1.55
  98  0.000  0.333  0.333- 526 1.55 566 1.55 385 1.55 478 1.55
  99  1.000  0.333  0.833- 386 1.55 527 1.55 479 1.55 567 1.55
 100  0.000  0.583  0.333- 387 1.55 528 1.55 568 1.55 480 1.55
 101  1.000  0.583  0.833- 529 1.55 388 1.55 481 1.55 569 1.55
 102  1.000  0.833  0.333- 482 1.55 389 1.55 530 1.55 570 1.55
 103  1.000  0.833  0.833- 390 1.55 483 1.55 531 1.55 571 1.55
 104  0.167  0.083  0.333- 532 1.55 484 1.55 524 1.55 391 1.55
 105  0.167  0.083  0.833- 392 1.55 485 1.55 533 1.55 525 1.55
 106  0.167  0.333  0.333- 534 1.55 393 1.55 526 1.55 486 1.55
 107  0.167  0.333  0.833- 394 1.55 535 1.55 527 1.55 487 1.55
 108  0.167  0.583  0.333- 395 1.55 536 1.55 488 1.55 528 1.55
 109  0.167  0.583  0.833- 537 1.54 396 1.55 529 1.55 489 1.55
 110  0.167  0.833  0.333- 538 1.55 490 1.55 397 1.55 530 1.55
 111  0.167  0.833  0.833- 539 1.55 398 1.55 491 1.55 531 1.55
 112  0.333  0.083  0.333- 492 1.55 399 1.55 540 1.55 532 1.55
 113  0.333  0.083  0.833- 493 1.55 400 1.55 541 1.55 533 1.55
 114  0.333  0.333  0.334- 542 1.55 534 1.55 401 1.55 494 1.55
 115  0.333  0.333  0.834- 495 1.55 543 1.55 402 1.55 535 1.55
 116  0.334  0.583  0.334- 403 1.54 544 1.54 536 1.55 496 1.55
 117  0.333  0.583  0.834- 545 1.54 404 1.54 537 1.55 497 1.55
 118  0.333  0.834  0.333- 498 1.55 546 1.55 538 1.55 405 1.55
 119  0.333  0.833  0.833- 406 1.55 547 1.55 499 1.55 539 1.55
 120  0.500  0.083  0.333- 500 1.55 407 1.55 548 1.55 540 1.55
 121  0.500  0.083  0.833- 408 1.55 549 1.55 501 1.55 541 1.55
 122  0.500  0.334  0.334- 409 1.54 502 1.54 542 1.55 550 1.55
 123  0.500  0.333  0.834- 503 1.54 410 1.54 543 1.55 551 1.55
 124  0.500  0.585  0.333- 572 1.52 504 1.54 544 1.55 552 1.55
 125  0.500  0.583  0.833- 505 1.55 411 1.55 545 1.55 553 1.55
 126  0.500  0.834  0.333- 506 1.55 412 1.55 546 1.55 554 1.55
 127  0.500  0.833  0.833- 413 1.55 507 1.55 555 1.55 547 1.55
 128  0.667  0.083  0.333- 508 1.55 414 1.55 548 1.55 556 1.55
 129  0.667  0.083  0.833- 415 1.55 549 1.55 509 1.55 557 1.55
 130  0.667  0.333  0.333- 558 1.54 550 1.55 416 1.55 510 1.55
 131  0.667  0.333  0.833- 551 1.55 511 1.55 559 1.55 417 1.55
 132  0.667  0.583  0.333- 418 1.54 552 1.54 512 1.55 560 1.55
 133  0.666  0.583  0.833- 553 1.54 419 1.55 561 1.55 513 1.55
 134  0.667  0.834  0.333- 514 1.54 554 1.55 562 1.55 420 1.55
 135  0.667  0.833  0.833- 421 1.55 555 1.55 563 1.55 515 1.55
 136  0.833  0.083  0.333- 564 1.55 516 1.55 556 1.55 422 1.55
 137  0.833  0.083  0.833- 423 1.55 565 1.55 557 1.55 517 1.55
 138  0.834  0.333  0.333- 566 1.54 558 1.55 424 1.55 518 1.55
 139  0.833  0.333  0.833- 425 1.55 567 1.55 559 1.55 519 1.55
 140  0.833  0.583  0.333- 560 1.55 426 1.55 568 1.55 520 1.55
 141  0.833  0.583  0.833- 569 1.55 521 1.55 427 1.55 561 1.55
 142  0.833  0.833  0.333- 562 1.55 428 1.55 570 1.55 522 1.55
 143  0.833  0.833  0.833- 429 1.55 571 1.55 523 1.55 563 1.55
 144  0.083  0.208  0.333- 484 1.55 430 1.55 526 1.55 476 1.55
 145  0.083  0.208  0.833- 431 1.55 485 1.55 527 1.55 477 1.55
 146  0.083  0.458  0.333- 478 1.55 486 1.55 528 1.55 432 1.55
 147  0.083  0.458  0.833- 487 1.55 433 1.55 529 1.55 479 1.55
 148  0.083  0.708  0.333- 488 1.55 434 1.55 530 1.55 480 1.55
 149  0.083  0.708  0.833- 489 1.55 435 1.55 531 1.55 481 1.55
 150  0.083  0.958  0.333- 490 1.55 524 1.55 436 1.55 482 1.55
 151  0.083  0.958  0.833- 437 1.55 491 1.55 525 1.55 483 1.55
 152  0.250  0.208  0.333- 492 1.55 484 1.55 438 1.55 534 1.55
 153  0.250  0.208  0.833- 439 1.55 535 1.55 493 1.55 485 1.55
 154  0.250  0.458  0.334- 536 1.55 486 1.55 440 1.55 494 1.55
 155  0.250  0.458  0.834- 495 1.55 441 1.55 487 1.55 537 1.55
 156  0.250  0.708  0.333- 442 1.55 496 1.55 488 1.55 538 1.55
 157  0.250  0.708  0.833- 497 1.55 539 1.55 443 1.55 489 1.55
 158  0.250  0.958  0.333- 532 1.55 498 1.55 444 1.55 490 1.55
 159  0.250  0.958  0.833- 445 1.55 533 1.55 499 1.55 491 1.55
 160  0.417  0.209  0.333- 446 1.55 542 1.55 500 1.55 492 1.55
 161  0.417  0.208  0.833- 543 1.54 447 1.55 493 1.55 501 1.55
 162  0.417  0.459  0.336- 575 1.51 502 1.55 544 1.55 494 1.57
 163  0.416  0.458  0.834- 448 1.55 495 1.55 545 1.55 503 1.55
 164  0.417  0.709  0.333- 546 1.54 496 1.55 449 1.55 504 1.55
 165  0.417  0.708  0.833- 497 1.55 450 1.55 505 1.55 547 1.55
 166  0.417  0.958  0.333- 540 1.55 451 1.55 498 1.55 506 1.55
 167  0.417  0.958  0.833- 452 1.55 541 1.55 499 1.55 507 1.55
 168  0.583  0.208  0.333- 550 1.55 453 1.55 500 1.55 508 1.55
 169  0.583  0.208  0.833- 509 1.55 501 1.55 551 1.55 454 1.55
 170  0.585  0.458  0.335- 576 1.48 510 1.54 502 1.56 552 1.56
 171  0.583  0.458  0.833- 511 1.55 455 1.55 503 1.55 553 1.55
 172  0.584  0.709  0.333- 554 1.54 512 1.55 456 1.55 504 1.55
 173  0.583  0.708  0.833- 513 1.55 505 1.55 457 1.55 555 1.55
 174  0.583  0.958  0.333- 548 1.55 458 1.55 514 1.55 506 1.55
 175  0.583  0.958  0.833- 459 1.55 549 1.55 515 1.55 507 1.55
 176  0.750  0.208  0.333- 516 1.55 558 1.55 508 1.55 460 1.55
 177  0.750  0.208  0.833- 461 1.55 509 1.55 559 1.55 517 1.55
 178  0.751  0.458  0.333- 518 1.54 560 1.55 462 1.55 510 1.55
 179  0.750  0.458  0.833- 561 1.55 511 1.55 463 1.55 519 1.55
 180  0.750  0.708  0.333- 512 1.54 464 1.55 520 1.55 562 1.55
 181  0.750  0.708  0.833- 521 1.55 563 1.55 465 1.55 513 1.55
 182  0.750  0.958  0.333- 556 1.55 514 1.55 466 1.55 522 1.55
 183  0.750  0.958  0.833- 467 1.55 515 1.55 523 1.55 557 1.55
 184  0.917  0.208  0.333- 476 1.55 516 1.55 566 1.55 468 1.55
 185  0.917  0.208  0.833- 469 1.55 517 1.55 477 1.55 567 1.55
 186  0.917  0.458  0.333- 478 1.54 518 1.55 568 1.55 470 1.55
 187  0.917  0.458  0.833- 471 1.55 569 1.55 479 1.55 519 1.55
 188  0.917  0.708  0.333- 520 1.55 472 1.55 570 1.55 480 1.55
 189  0.917  0.708  0.833- 481 1.55 473 1.55 571 1.55 521 1.55
 190  0.917  0.958  0.333- 522 1.55 564 1.55 474 1.55 482 1.55
 191  0.917  0.958  0.833- 475 1.55 523 1.55 565 1.55 483 1.55
 192  0.000  0.167  0.167- 335 1.55 476 1.55 375 1.55 290 1.55
 193  1.000  0.167  0.667- 336 1.55 477 1.55 376 1.55 291 1.55
 194  0.000  0.417  0.167- 337 1.55 478 1.55 377 1.55 292 1.55
 195  1.000  0.417  0.667- 378 1.55 338 1.55 479 1.55 293 1.55
 196  1.000  0.667  0.167- 339 1.55 480 1.55 294 1.55 379 1.55
 197  1.000  0.667  0.667- 481 1.55 340 1.55 295 1.55 380 1.55
 198  1.000  0.917  0.167- 341 1.55 288 1.55 482 1.55 381 1.55
 199  1.000  0.917  0.667- 483 1.55 342 1.55 289 1.55 382 1.55
 200  0.167  0.167  0.167- 484 1.55 343 1.55 298 1.55 335 1.55
 201  0.167  0.167  0.667- 299 1.55 485 1.55 344 1.55 336 1.55
 202  0.167  0.417  0.167- 486 1.55 345 1.55 300 1.55 337 1.55
 203  0.167  0.417  0.667- 346 1.55 487 1.55 338 1.55 301 1.55
 204  0.167  0.667  0.167- 347 1.55 488 1.55 302 1.55 339 1.55
 205  0.167  0.667  0.667- 489 1.55 303 1.55 348 1.55 340 1.55
 206  0.167  0.917  0.167- 296 1.55 490 1.55 349 1.55 341 1.55
 207  0.167  0.917  0.667- 350 1.55 297 1.55 491 1.55 342 1.55
 208  0.333  0.167  0.167- 492 1.55 306 1.55 351 1.55 343 1.55
 209  0.333  0.167  0.667- 307 1.54 493 1.55 352 1.55 344 1.55
 210  0.333  0.417  0.167- 494 1.54 353 1.55 345 1.55 308 1.55
 211  0.333  0.417  0.667- 309 1.54 354 1.55 495 1.55 346 1.55
 212  0.333  0.667  0.167- 496 1.55 355 1.55 347 1.55 310 1.55
 213  0.334  0.666  0.667- 348 1.55 497 1.55 356 1.55 311 1.55
 214  0.333  0.917  0.167- 304 1.55 498 1.55 357 1.55 349 1.55
 215  0.333  0.917  0.667- 499 1.55 358 1.55 305 1.55 350 1.55
 216  0.500  0.167  0.167- 314 1.55 500 1.55 359 1.55 351 1.55
 217  0.500  0.167  0.667- 360 1.55 501 1.55 352 1.55 315 1.55
 218  0.500  0.417  0.168- 316 1.54 361 1.55 353 1.55 502 1.56
 219  0.499  0.417  0.667- 574 1.49 354 1.55 362 1.55 503 1.55
 220  0.500  0.667  0.166- 504 1.54 317 1.54 355 1.55 363 1.55
 221  0.500  0.666  0.666- 356 1.54 364 1.54 505 1.55 318 1.55
 222  0.500  0.917  0.167- 312 1.55 506 1.55 357 1.55 365 1.55
 223  0.500  0.917  0.667- 507 1.55 313 1.55 358 1.55 366 1.55
 224  0.667  0.167  0.167- 321 1.55 508 1.55 367 1.55 359 1.55
 225  0.667  0.167  0.667- 509 1.55 360 1.55 322 1.55 368 1.55
 226  0.667  0.416  0.166- 510 1.54 369 1.54 361 1.55 323 1.55
 227  0.666  0.417  0.666- 362 1.54 324 1.54 511 1.55 370 1.55
 228  0.667  0.667  0.167- 512 1.54 363 1.55 371 1.55 325 1.55
 229  0.666  0.666  0.666- 372 1.55 513 1.55 326 1.55 364 1.55
 230  0.667  0.917  0.167- 319 1.55 514 1.55 365 1.55 373 1.55
 231  0.667  0.917  0.667- 515 1.55 366 1.55 374 1.55 320 1.55
 232  0.833  0.167  0.167- 375 1.55 516 1.55 329 1.55 367 1.55
 233  0.833  0.167  0.667- 517 1.55 330 1.55 368 1.55 376 1.55
 234  0.834  0.417  0.166- 377 1.54 518 1.55 331 1.55 369 1.55
 235  0.833  0.417  0.667- 370 1.55 332 1.55 519 1.55 378 1.55
 236  0.833  0.667  0.167- 520 1.55 371 1.55 379 1.55 333 1.55
 237  0.833  0.666  0.666- 521 1.55 380 1.55 334 1.55 372 1.55
 238  0.833  0.917  0.167- 327 1.55 522 1.55 373 1.55 381 1.55
 239  0.833  0.917  0.667- 523 1.55 374 1.55 382 1.55 328 1.55
 240  0.083  0.042  0.167- 296 1.55 524 1.55 335 1.55 288 1.55
 241  0.083  0.042  0.667- 297 1.55 525 1.55 336 1.55 289 1.55
 242  0.083  0.292  0.167- 298 1.55 526 1.55 337 1.55 290 1.55
 243  0.083  0.292  0.667- 527 1.55 299 1.55 291 1.55 338 1.55
 244  0.083  0.542  0.167- 528 1.55 300 1.55 339 1.55 292 1.55
 245  0.083  0.542  0.667- 301 1.54 529 1.55 340 1.55 293 1.55
 246  0.083  0.792  0.167- 302 1.55 530 1.55 341 1.55 294 1.55
 247  0.083  0.792  0.667- 531 1.55 303 1.55 342 1.55 295 1.55
 248  0.250  0.042  0.167- 343 1.55 532 1.55 304 1.55 296 1.55
 249  0.250  0.042  0.667- 344 1.55 533 1.55 305 1.55 297 1.55
 250  0.250  0.292  0.167- 534 1.55 306 1.55 345 1.55 298 1.55
 251  0.250  0.292  0.667- 346 1.55 535 1.55 299 1.55 307 1.55
 252  0.250  0.542  0.167- 536 1.55 308 1.55 347 1.55 300 1.55
 253  0.250  0.542  0.667- 309 1.54 348 1.55 537 1.55 301 1.55
 254  0.250  0.792  0.167- 538 1.55 349 1.55 310 1.55 302 1.55
 255  0.250  0.792  0.667- 311 1.55 539 1.55 303 1.55 350 1.55
 256  0.417  0.042  0.167- 351 1.55 540 1.55 304 1.55 312 1.55
 257  0.417  0.042  0.667- 541 1.55 305 1.55 352 1.55 313 1.55
 258  0.417  0.292  0.167- 542 1.55 353 1.55 314 1.55 306 1.55
 259  0.417  0.292  0.667- 354 1.54 315 1.55 307 1.55 543 1.55
 260  0.417  0.542  0.167- 316 1.55 308 1.55 355 1.55 544 1.55
 261  0.417  0.541  0.667- 574 1.49 309 1.55 545 1.55 356 1.56
 262  0.417  0.792  0.167- 357 1.55 546 1.55 310 1.55 317 1.55
 263  0.417  0.792  0.667- 547 1.55 311 1.55 318 1.55 358 1.55
 264  0.583  0.042  0.167- 359 1.55 548 1.55 319 1.55 312 1.55
 265  0.583  0.042  0.667- 549 1.55 320 1.55 360 1.55 313 1.55
 266  0.583  0.292  0.167- 550 1.55 361 1.55 314 1.55 321 1.55
 267  0.583  0.292  0.666- 315 1.54 322 1.55 551 1.55 362 1.56
 268  0.583  0.541  0.167- 316 1.55 323 1.55 363 1.55 552 1.55
 269  0.581  0.541  0.665- 574 1.51 324 1.55 364 1.55 553 1.57
 270  0.583  0.792  0.166- 365 1.55 554 1.55 325 1.55 317 1.55
 271  0.583  0.792  0.667- 555 1.55 318 1.55 326 1.55 366 1.55
 272  0.750  0.042  0.167- 367 1.55 556 1.55 319 1.55 327 1.55
 273  0.750  0.042  0.667- 557 1.55 320 1.55 368 1.55 328 1.55
 274  0.750  0.292  0.166- 329 1.54 558 1.55 321 1.55 369 1.55
 275  0.750  0.292  0.667- 370 1.55 322 1.55 559 1.55 330 1.55
 276  0.750  0.542  0.167- 560 1.54 323 1.55 331 1.55 371 1.55
 277  0.749  0.541  0.666- 372 1.54 332 1.55 561 1.55 324 1.56
 278  0.750  0.792  0.167- 562 1.55 325 1.55 373 1.55 333 1.55
 279  0.750  0.792  0.667- 563 1.55 334 1.55 326 1.55 374 1.55
 280  0.917  0.042  0.167- 288 1.55 327 1.55 375 1.55 564 1.55
 281  0.917  0.042  0.667- 565 1.55 328 1.55 376 1.55 289 1.55
 282  0.917  0.292  0.167- 290 1.55 566 1.55 329 1.55 377 1.55
 283  0.917  0.292  0.667- 567 1.55 330 1.55 291 1.55 378 1.55
 284  0.917  0.542  0.167- 568 1.55 292 1.55 331 1.55 379 1.55
 285  0.916  0.542  0.667- 569 1.55 380 1.55 293 1.55 332 1.55
 286  0.917  0.792  0.167- 381 1.55 333 1.55 570 1.55 294 1.55
 287  0.917  0.792  0.667- 571 1.55 295 1.55 382 1.55 334 1.55
 288  0.000  1.000  0.125-   1 1.55 280 1.55 198 1.55 240 1.55
 289  1.000  1.000  0.625-   2 1.55 199 1.55 281 1.55 241 1.55
 290  0.000  0.250  0.125- 282 1.55   3 1.55 192 1.55 242 1.55
 291  0.000  0.250  0.625-   4 1.55 283 1.55 243 1.55 193 1.55
 292  0.000  0.500  0.125-   5 1.55 284 1.55 194 1.55 244 1.55
 293  1.000  0.500  0.625-   6 1.55 195 1.55 285 1.55 245 1.55
 294  1.000  0.750  0.125-   7 1.55 286 1.55 196 1.55 246 1.55
 295  1.000  0.750  0.625-   8 1.55 287 1.55 197 1.55 247 1.55
 296  0.167  0.000  0.125-   9 1.55 240 1.55 206 1.55 248 1.55
 297  0.167  1.000  0.625- 241 1.55 207 1.55  10 1.55 249 1.55
 298  0.167  0.250  0.125-  11 1.55 242 1.55 200 1.55 250 1.55
 299  0.167  0.250  0.625- 201 1.55 243 1.55  12 1.55 251 1.55
 300  0.167  0.500  0.125-  13 1.55 244 1.55 202 1.55 252 1.55
 301  0.166  0.500  0.625- 245 1.54  14 1.55 203 1.55 253 1.55
 302  0.167  0.750  0.125- 246 1.55  15 1.55 254 1.55 204 1.55
 303  0.167  0.750  0.625-  16 1.55 247 1.55 255 1.55 205 1.55
 304  0.333  0.000  0.125- 214 1.55  17 1.55 248 1.55 256 1.55
 305  0.333  0.000  0.625-  18 1.55 249 1.55 215 1.55 257 1.55
 306  0.333  0.250  0.125-  19 1.55 208 1.55 250 1.55 258 1.55
 307  0.333  0.250  0.625- 209 1.54  20 1.55 251 1.55 259 1.55
 308  0.333  0.500  0.125-  21 1.55 252 1.55 210 1.55 260 1.55
 309  0.333  0.500  0.625- 253 1.54 211 1.54 261 1.55  22 1.55
 310  0.333  0.750  0.125-  23 1.55 262 1.55 254 1.55 212 1.55
 311  0.333  0.750  0.625- 255 1.55 263 1.55  24 1.55 213 1.55
 312  0.500  0.000  0.125- 222 1.55  25 1.55 264 1.55 256 1.55
 313  0.500  0.000  0.625-  26 1.55 223 1.55 265 1.55 257 1.55
 314  0.500  0.250  0.125-  27 1.54 216 1.55 266 1.55 258 1.55
 315  0.500  0.250  0.625-  28 1.54 267 1.54 259 1.55 217 1.55
 316  0.500  0.500  0.126- 218 1.54 268 1.55 260 1.55  29 1.55
 317  0.500  0.750  0.125- 220 1.54  30 1.54 270 1.55 262 1.55
 318  0.500  0.750  0.625-  31 1.55 271 1.55 263 1.55 221 1.55
 319  0.667  0.000  0.125- 230 1.55  32 1.55 272 1.55 264 1.55
 320  0.667  0.000  0.625-  33 1.55 273 1.55 265 1.55 231 1.55
 321  0.667  0.250  0.125-  34 1.55 224 1.55 274 1.55 266 1.55
 322  0.667  0.250  0.625-  35 1.55 275 1.55 225 1.55 267 1.55
 323  0.667  0.500  0.125-  36 1.55 276 1.55 226 1.55 268 1.55
 324  0.665  0.499  0.624- 227 1.54 269 1.55  37 1.56 277 1.56
 325  0.667  0.750  0.125-  38 1.55 278 1.55 270 1.55 228 1.55
 326  0.667  0.750  0.625- 271 1.55 279 1.55  39 1.55 229 1.55
 327  0.833  0.000  0.125-  40 1.55 280 1.55 238 1.55 272 1.55
 328  0.833  0.000  0.625- 281 1.55  41 1.55 239 1.55 273 1.55
 329  0.833  0.250  0.125- 274 1.54  42 1.55 232 1.55 282 1.55
 330  0.833  0.250  0.625- 283 1.55 233 1.55  43 1.55 275 1.55
 331  0.833  0.500  0.125-  44 1.55 284 1.55 276 1.55 234 1.55
 332  0.833  0.500  0.625-  45 1.55 235 1.55 285 1.55 277 1.55
 333  0.833  0.750  0.125-  46 1.55 286 1.55 278 1.55 236 1.55
 334  0.833  0.750  0.625-  47 1.55 279 1.55 237 1.55 287 1.55
 335  0.083  0.125  0.125- 192 1.55  48 1.55 240 1.55 200 1.55
 336  0.083  0.125  0.625- 193 1.55 241 1.55  49 1.55 201 1.55
 337  0.083  0.375  0.125- 194 1.55  50 1.55 242 1.55 202 1.55
 338  0.083  0.375  0.625- 195 1.55  51 1.55 203 1.55 243 1.55
 339  0.083  0.625  0.125- 196 1.55  52 1.55 244 1.55 204 1.55
 340  0.083  0.625  0.625-  53 1.55 197 1.55 245 1.55 205 1.55
 341  0.083  0.875  0.125-  54 1.55 198 1.55 246 1.55 206 1.55
 342  0.083  0.875  0.625- 199 1.55  55 1.55 247 1.55 207 1.55
 343  0.250  0.125  0.125- 248 1.55  56 1.55 200 1.55 208 1.55
 344  0.250  0.125  0.625- 249 1.55 201 1.55  57 1.55 209 1.55
 345  0.250  0.375  0.125-  58 1.54 210 1.55 250 1.55 202 1.55
 346  0.250  0.375  0.625-  59 1.55 251 1.55 203 1.55 211 1.55
 347  0.250  0.625  0.125-  60 1.54 204 1.55 212 1.55 252 1.55
 348  0.250  0.625  0.625-  61 1.55 213 1.55 205 1.55 253 1.55
 349  0.250  0.875  0.125-  62 1.55 206 1.55 254 1.55 214 1.55
 350  0.250  0.875  0.625- 207 1.55  63 1.55 215 1.55 255 1.55
 351  0.417  0.125  0.125- 256 1.55  64 1.55 216 1.55 208 1.55
 352  0.417  0.125  0.625-  65 1.55 217 1.55 257 1.55 209 1.55
 353  0.417  0.375  0.126- 258 1.55 210 1.55  66 1.55 218 1.55
 354  0.417  0.375  0.625- 259 1.54 211 1.55 219 1.55  67 1.55
 355  0.417  0.625  0.125-  68 1.55 212 1.55 220 1.55 260 1.55
 356  0.417  0.625  0.625- 221 1.54 213 1.55  69 1.55 261 1.56
 357  0.417  0.875  0.125- 262 1.55  70 1.55 222 1.55 214 1.55
 358  0.417  0.875  0.625-  71 1.55 215 1.55 223 1.55 263 1.55
 359  0.583  0.125  0.125- 264 1.55  72 1.55 224 1.55 216 1.55
 360  0.583  0.125  0.625-  73 1.55 225 1.55 217 1.55 265 1.55
 361  0.583  0.375  0.125- 266 1.55 226 1.55  74 1.55 218 1.55
 362  0.583  0.376  0.624- 227 1.54 219 1.55 267 1.56  75 1.56
 363  0.583  0.625  0.125- 228 1.55  76 1.55 220 1.55 268 1.55
 364  0.583  0.625  0.624- 221 1.54  77 1.55 229 1.55 269 1.55
 365  0.583  0.875  0.125- 270 1.55  78 1.55 230 1.55 222 1.55
 366  0.583  0.875  0.625-  79 1.55 231 1.55 223 1.55 271 1.55
 367  0.750  0.125  0.125-  80 1.55 272 1.55 232 1.55 224 1.55
 368  0.750  0.125  0.625- 233 1.55  81 1.55 273 1.55 225 1.55
 369  0.750  0.375  0.124- 226 1.54  82 1.54 234 1.55 274 1.55
 370  0.750  0.375  0.625- 235 1.55 275 1.55  83 1.55 227 1.55
 371  0.750  0.625  0.125-  84 1.55 236 1.55 276 1.55 228 1.55
 372  0.750  0.625  0.625-  85 1.54 277 1.54 229 1.55 237 1.55
 373  0.750  0.875  0.125-  86 1.55 238 1.55 278 1.55 230 1.55
 374  0.750  0.875  0.625- 239 1.55  87 1.55 231 1.55 279 1.55
 375  0.917  0.125  0.125- 232 1.55  88 1.55 280 1.55 192 1.55
 376  0.917  0.125  0.625- 193 1.55 281 1.55  89 1.55 233 1.55
 377  0.917  0.375  0.125- 234 1.54  90 1.55 194 1.55 282 1.55
 378  0.917  0.375  0.625- 195 1.55 283 1.55  91 1.55 235 1.55
 379  0.917  0.625  0.125- 236 1.55 284 1.55  92 1.55 196 1.55
 380  0.917  0.625  0.625-  93 1.55 285 1.55 237 1.55 197 1.55
 381  0.917  0.875  0.125-  94 1.55 286 1.55 198 1.55 238 1.55
 382  0.917  0.875  0.625-  95 1.55 239 1.55 199 1.55 287 1.55
 383  0.000  0.083  0.458-  89 1.55  49 1.55   2 1.55  96 1.55
 384  0.000  0.083  0.958-  97 1.55  88 1.55   1 1.55  48 1.55
 385  0.000  0.333  0.458-  91 1.54  51 1.54   4 1.55  98 1.55
 386  0.000  0.333  0.958-  90 1.55  99 1.55   3 1.55  50 1.55
 387  1.000  0.583  0.458- 100 1.55  93 1.55  53 1.55   6 1.55
 388  1.000  0.583  0.958-  92 1.55 101 1.55   5 1.55  52 1.55
 389  1.000  0.833  0.458-  95 1.55   8 1.55  55 1.55 102 1.55
 390  1.000  0.833  0.958- 103 1.55  94 1.55   7 1.55  54 1.55
 391  0.167  0.083  0.458-  10 1.54  57 1.55  49 1.55 104 1.55
 392  0.167  0.083  0.958- 105 1.55   9 1.55  48 1.55  56 1.55
 393  0.167  0.333  0.458-  59 1.55  51 1.55  12 1.55 106 1.55
 394  0.167  0.333  0.958- 107 1.55  50 1.55  11 1.55  58 1.55
 395  0.167  0.583  0.458- 108 1.55  53 1.55  14 1.55  61 1.55
 396  0.167  0.583  0.958-  52 1.55 109 1.55  13 1.55  60 1.55
 397  0.167  0.833  0.458-  55 1.55 110 1.55  63 1.55  16 1.55
 398  0.167  0.833  0.958- 111 1.55  54 1.55  15 1.55  62 1.55
 399  0.333  0.083  0.458-  18 1.55 112 1.55  57 1.55  65 1.55
 400  0.333  0.083  0.958-  17 1.55 113 1.55  56 1.55  64 1.55
 401  0.333  0.332  0.459-  20 1.54 114 1.55  59 1.55  67 1.55
 402  0.333  0.333  0.959-  19 1.55  58 1.55 115 1.55  66 1.55
 403  0.334  0.583  0.459- 116 1.54  61 1.55  69 1.55  22 1.56
 404  0.333  0.583  0.959- 117 1.54  60 1.54  68 1.55  21 1.55
 405  0.333  0.834  0.458-  24 1.54  63 1.54 118 1.55  71 1.55
 406  0.333  0.833  0.958- 119 1.55  62 1.55  23 1.55  70 1.55
 407  0.500  0.083  0.458-  65 1.55  26 1.55  73 1.55 120 1.55
 408  0.500  0.083  0.958-  25 1.55  72 1.55 121 1.55  64 1.55
 409  0.500  0.335  0.458- 122 1.54  67 1.55  28 1.56  75 1.56
 410  0.500  0.333  0.959- 123 1.54  27 1.54  74 1.55  66 1.55
 411  0.500  0.583  0.958-  76 1.55  29 1.55  68 1.55 125 1.55
 412  0.500  0.834  0.458-  31 1.54  79 1.55  71 1.55 126 1.55
 413  0.500  0.833  0.958- 127 1.55  30 1.55  78 1.55  70 1.55
 414  0.667  0.083  0.458-  33 1.55  81 1.55 128 1.55  73 1.55
 415  0.667  0.083  0.958- 129 1.55  32 1.55  80 1.55  72 1.55
 416  0.667  0.333  0.458-  35 1.54  75 1.55  83 1.55 130 1.55
 417  0.667  0.333  0.958-  34 1.55  82 1.55 131 1.55  74 1.55
 418  0.666  0.583  0.458- 132 1.54  77 1.55  85 1.55  37 1.56
 419  0.667  0.583  0.958-  84 1.55 133 1.55  36 1.55  76 1.55
 420  0.667  0.834  0.458-  39 1.54  87 1.54 134 1.55  79 1.55
 421  0.667  0.833  0.958- 135 1.55  86 1.55  38 1.55  78 1.55
 422  0.833  0.083  0.458-  41 1.55  81 1.55  89 1.55 136 1.55
 423  0.833  0.083  0.958- 137 1.55  40 1.55  80 1.55  88 1.55
 424  0.834  0.333  0.458-  83 1.54  91 1.55  43 1.55 138 1.55
 425  0.833  0.333  0.958- 139 1.55  82 1.55  42 1.55  90 1.55
 426  0.833  0.583  0.458- 140 1.55  93 1.55  45 1.55  85 1.55
 427  0.833  0.583  0.958-  44 1.55  84 1.55  92 1.55 141 1.55
 428  0.833  0.833  0.458- 142 1.55  95 1.55  87 1.55  47 1.55
 429  0.833  0.833  0.958- 143 1.55  46 1.55  86 1.55  94 1.55
 430  0.083  0.208  0.458-  12 1.55   4 1.55  49 1.55 144 1.55
 431  0.083  0.208  0.958- 145 1.55   3 1.55  48 1.55  11 1.55
 432  0.083  0.458  0.458-  14 1.54   6 1.54 146 1.55  51 1.55
 433  0.083  0.458  0.958- 147 1.55   5 1.55  50 1.55  13 1.55
 434  0.083  0.708  0.458-   8 1.55 148 1.55  16 1.55  53 1.55
 435  0.083  0.708  0.958-   7 1.55 149 1.55  52 1.55  15 1.55
 436  0.083  0.958  0.458-  10 1.55  55 1.55   2 1.55 150 1.55
 437  0.083  0.958  0.958- 151 1.55  54 1.55   1 1.55   9 1.55
 438  0.250  0.208  0.458-  20 1.54  57 1.54 152 1.55  12 1.55
 439  0.250  0.208  0.958- 153 1.55  56 1.55  11 1.55  19 1.55
 440  0.249  0.459  0.459-  14 1.54 154 1.55  59 1.55  22 1.55
 441  0.250  0.458  0.959- 155 1.55  13 1.55  58 1.55  21 1.55
 442  0.250  0.708  0.458-  16 1.55 156 1.55  24 1.55  61 1.55
 443  0.250  0.708  0.958-  15 1.55  23 1.55 157 1.55  60 1.55
 444  0.250  0.958  0.458-  63 1.55  10 1.55 158 1.55  18 1.55
 445  0.250  0.958  0.958- 159 1.55  62 1.55   9 1.55  17 1.55
 446  0.417  0.209  0.458- 160 1.55  20 1.55  65 1.55  28 1.55
 447  0.417  0.208  0.958-  64 1.55 161 1.55  19 1.55  27 1.55
 448  0.417  0.458  0.959- 163 1.55  66 1.55  21 1.55  29 1.55
 449  0.416  0.709  0.458-  69 1.54  24 1.54 164 1.55  31 1.55
 450  0.417  0.708  0.958-  23 1.55 165 1.55  30 1.55  68 1.55
 451  0.417  0.958  0.458-  71 1.55  18 1.55  26 1.55 166 1.55
 452  0.417  0.958  0.958-  70 1.55 167 1.55  17 1.55  25 1.55
 453  0.583  0.208  0.458-  35 1.55 168 1.55  73 1.55  28 1.55
 454  0.583  0.208  0.958-  34 1.55  72 1.55  27 1.55 169 1.55
 455  0.583  0.458  0.958-  36 1.55  74 1.55  29 1.55 171 1.55
 456  0.584  0.709  0.458-  39 1.54  77 1.54 172 1.55  31 1.55
 457  0.583  0.708  0.958-  38 1.55  30 1.55 173 1.55  76 1.55
 458  0.583  0.958  0.458-  79 1.55  33 1.55 174 1.55  26 1.55
 459  0.583  0.958  0.958-  78 1.55 175 1.55  32 1.55  25 1.55
 460  0.750  0.208  0.458-  35 1.54  81 1.54  43 1.55 176 1.55
 461  0.750  0.208  0.958- 177 1.55  80 1.55  42 1.55  34 1.55
 462  0.751  0.458  0.458-  45 1.54  37 1.54 178 1.55  83 1.55
 463  0.750  0.458  0.958-  44 1.55  82 1.55 179 1.55  36 1.55
 464  0.750  0.708  0.458- 180 1.55  39 1.55  47 1.55  85 1.55
 465  0.750  0.708  0.958-  38 1.55  84 1.55 181 1.55  46 1.55
 466  0.750  0.958  0.458-  87 1.55  41 1.55 182 1.55  33 1.55
 467  0.750  0.958  0.958- 183 1.55  86 1.55  40 1.55  32 1.55
 468  0.917  0.208  0.458-  43 1.54  89 1.55   4 1.55 184 1.55
 469  0.917  0.208  0.958-  42 1.55 185 1.55  88 1.55   3 1.55
 470  0.917  0.458  0.458-  45 1.54   6 1.54 186 1.55  91 1.55
 471  0.917  0.458  0.958- 187 1.55  44 1.55  90 1.55   5 1.55
 472  0.917  0.708  0.458-  47 1.55 188 1.55  93 1.55   8 1.55
 473  0.917  0.708  0.958-  46 1.55  92 1.55 189 1.55   7 1.55
 474  0.917  0.958  0.458-  41 1.55 190 1.55   2 1.55  95 1.55
 475  0.917  0.958  0.958- 191 1.55  40 1.55  94 1.55   1 1.55
 476  0.000  0.167  0.292- 184 1.55 192 1.55  96 1.55 144 1.55
 477  1.000  0.167  0.792- 193 1.55  97 1.55 185 1.55 145 1.55
 478  0.000  0.417  0.292- 186 1.54 146 1.55 194 1.55  98 1.55
 479  1.000  0.417  0.792- 195 1.55 187 1.55  99 1.55 147 1.55
 480  0.000  0.667  0.292- 196 1.55 188 1.55 100 1.55 148 1.55
 481  1.000  0.667  0.792- 197 1.55 189 1.55 101 1.55 149 1.55
 482  0.000  0.917  0.292- 102 1.55 198 1.55 190 1.55 150 1.55
 483  1.000  0.917  0.792- 199 1.55 103 1.55 191 1.55 151 1.55
 484  0.167  0.167  0.292- 144 1.55 200 1.55 104 1.55 152 1.55
 485  0.167  0.167  0.792- 201 1.55 145 1.55 105 1.55 153 1.55
 486  0.167  0.417  0.292- 202 1.55 146 1.55 106 1.55 154 1.55
 487  0.167  0.417  0.792- 147 1.55 203 1.55 107 1.55 155 1.55
 488  0.167  0.667  0.292- 204 1.55 148 1.55 156 1.55 108 1.55
 489  0.167  0.667  0.792- 149 1.55 205 1.55 157 1.55 109 1.55
 490  0.167  0.917  0.292- 150 1.55 206 1.55 110 1.55 158 1.55
 491  0.167  0.917  0.792- 207 1.55 151 1.55 111 1.55 159 1.55
 492  0.333  0.167  0.292- 112 1.55 208 1.55 152 1.55 160 1.55
 493  0.333  0.167  0.792- 113 1.55 209 1.55 153 1.55 161 1.55
 494  0.333  0.417  0.292- 210 1.54 114 1.55 154 1.55 162 1.57
 495  0.333  0.417  0.792- 115 1.55 155 1.55 163 1.55 211 1.55
 496  0.333  0.667  0.292- 212 1.55 164 1.55 156 1.55 116 1.55
 497  0.333  0.667  0.792- 157 1.55 165 1.55 117 1.55 213 1.55
 498  0.333  0.917  0.292- 118 1.55 214 1.55 158 1.55 166 1.55
 499  0.333  0.917  0.792- 215 1.55 159 1.55 119 1.55 167 1.55
 500  0.500  0.167  0.292- 120 1.55 216 1.55 168 1.55 160 1.55
 501  0.500  0.167  0.792- 169 1.55 217 1.55 121 1.55 161 1.55
 502  0.500  0.417  0.294- 122 1.54 162 1.55 170 1.56 218 1.56
 503  0.500  0.416  0.793- 123 1.54 171 1.55 163 1.55 219 1.55
 504  0.500  0.667  0.290- 220 1.54 124 1.54 172 1.55 164 1.55
 505  0.500  0.667  0.792- 173 1.55 125 1.55 165 1.55 221 1.55
 506  0.500  0.917  0.292- 126 1.55 222 1.55 174 1.55 166 1.55
 507  0.500  0.917  0.792- 223 1.55 127 1.55 175 1.55 167 1.55
 508  0.667  0.167  0.292- 128 1.55 224 1.55 176 1.55 168 1.55
 509  0.667  0.167  0.792- 225 1.55 169 1.55 177 1.55 129 1.55
 510  0.668  0.416  0.290- 226 1.54 170 1.54 178 1.55 130 1.55
 511  0.666  0.417  0.791- 131 1.55 179 1.55 171 1.55 227 1.55
 512  0.667  0.667  0.292- 228 1.54 180 1.54 172 1.55 132 1.55
 513  0.666  0.667  0.791- 173 1.55 133 1.55 181 1.55 229 1.55
 514  0.667  0.917  0.292- 134 1.54 182 1.55 230 1.55 174 1.55
 515  0.667  0.917  0.792- 231 1.55 183 1.55 175 1.55 135 1.55
 516  0.833  0.167  0.292- 176 1.55 136 1.55 232 1.55 184 1.55
 517  0.833  0.167  0.792- 233 1.55 185 1.55 137 1.55 177 1.55
 518  0.834  0.417  0.291- 178 1.54 186 1.55 234 1.55 138 1.55
 519  0.833  0.417  0.791- 235 1.55 139 1.55 187 1.55 179 1.55
 520  0.833  0.667  0.292- 188 1.55 236 1.55 180 1.55 140 1.55
 521  0.833  0.667  0.791- 141 1.55 237 1.55 181 1.55 189 1.55
 522  0.833  0.917  0.292- 190 1.55 238 1.55 142 1.55 182 1.55
 523  0.833  0.917  0.792- 239 1.55 191 1.55 183 1.55 143 1.55
 524  0.083  0.042  0.292- 104 1.55  96 1.55 240 1.55 150 1.55
 525  0.083  0.042  0.792- 241 1.55 151 1.55 105 1.55  97 1.55
 526  0.083  0.292  0.292-  98 1.55 242 1.55 144 1.55 106 1.55
 527  0.083  0.292  0.792- 243 1.55  99 1.55 107 1.55 145 1.55
 528  0.083  0.542  0.292- 244 1.55 100 1.55 146 1.55 108 1.55
 529  0.083  0.542  0.792- 101 1.55 245 1.55 109 1.55 147 1.55
 530  0.083  0.792  0.292- 246 1.55 102 1.55 110 1.55 148 1.55
 531  0.083  0.792  0.792- 247 1.55 149 1.55 103 1.55 111 1.55
 532  0.250  0.042  0.292- 158 1.55 104 1.55 248 1.55 112 1.55
 533  0.250  0.042  0.792- 249 1.55 159 1.55 105 1.55 113 1.55
 534  0.250  0.292  0.292- 250 1.55 106 1.55 152 1.55 114 1.55
 535  0.250  0.292  0.792- 153 1.55 251 1.55 107 1.55 115 1.55
 536  0.250  0.542  0.292- 252 1.55 154 1.55 108 1.55 116 1.55
 537  0.250  0.542  0.792- 109 1.54 155 1.55 117 1.55 253 1.55
 538  0.250  0.792  0.292- 254 1.55 110 1.55 118 1.55 156 1.55
 539  0.250  0.792  0.792- 255 1.55 111 1.55 157 1.55 119 1.55
 540  0.417  0.042  0.292- 166 1.55 256 1.55 112 1.55 120 1.55
 541  0.417  0.042  0.792- 257 1.55 167 1.55 113 1.55 121 1.55
 542  0.417  0.292  0.292- 258 1.55 160 1.55 114 1.55 122 1.55
 543  0.417  0.292  0.792- 161 1.54 115 1.55 123 1.55 259 1.55
 544  0.417  0.542  0.293- 116 1.54 124 1.55 260 1.55 162 1.55
 545  0.416  0.542  0.793- 117 1.54 125 1.55 163 1.55 261 1.55
 546  0.417  0.792  0.291- 164 1.54 262 1.55 118 1.55 126 1.55
 547  0.417  0.792  0.792- 263 1.55 119 1.55 127 1.55 165 1.55
 548  0.583  0.042  0.292- 174 1.55 264 1.55 128 1.55 120 1.55
 549  0.583  0.042  0.792- 265 1.55 129 1.55 175 1.55 121 1.55
 550  0.583  0.292  0.292- 266 1.55 168 1.55 130 1.55 122 1.55
 551  0.583  0.292  0.791- 131 1.55 123 1.55 169 1.55 267 1.55
 552  0.584  0.542  0.293- 132 1.54 124 1.55 268 1.55 170 1.56
 553  0.583  0.542  0.792- 133 1.54 171 1.55 125 1.55 269 1.57
 554  0.583  0.792  0.291- 172 1.54 270 1.55 134 1.55 126 1.55
 555  0.583  0.792  0.792- 271 1.55 135 1.55 127 1.55 173 1.55
 556  0.750  0.042  0.292- 182 1.55 272 1.55 136 1.55 128 1.55
 557  0.750  0.042  0.792- 273 1.55 137 1.55 129 1.55 183 1.55
 558  0.750  0.291  0.291- 130 1.54 274 1.55 176 1.55 138 1.55
 559  0.750  0.292  0.792- 275 1.55 139 1.55 177 1.55 131 1.55
 560  0.750  0.542  0.291- 276 1.54 140 1.55 178 1.55 132 1.55
 561  0.750  0.542  0.791- 179 1.55 133 1.55 141 1.55 277 1.55
 562  0.750  0.792  0.292- 142 1.55 278 1.55 134 1.55 180 1.55
 563  0.750  0.792  0.792- 279 1.55 135 1.55 143 1.55 181 1.55
 564  0.917  0.042  0.292- 136 1.55 190 1.55 280 1.55  96 1.55
 565  0.917  0.042  0.792- 281 1.55 137 1.55 191 1.55  97 1.55
 566  0.917  0.292  0.292- 138 1.54 282 1.55 184 1.55  98 1.55
 567  0.917  0.292  0.792- 283 1.55 139 1.55 185 1.55  99 1.55
 568  0.917  0.542  0.292- 284 1.55 140 1.55 100 1.55 186 1.55
 569  0.917  0.542  0.792- 285 1.55 141 1.55 187 1.55 101 1.55
 570  0.917  0.792  0.292- 142 1.55 286 1.55 188 1.55 102 1.55
 571  0.917  0.792  0.792- 287 1.55 143 1.55 189 1.55 103 1.55
 572  0.500  0.589  0.455- 573 1.09 124 1.52  77 1.52  69 1.52
 573  0.499  0.531  0.486- 572 1.09
 574  0.498  0.499  0.633- 219 1.49 261 1.49 269 1.51
 575  0.410  0.455  0.458-  67 1.49  22 1.49 162 1.51
 576  0.591  0.455  0.454- 170 1.48  37 1.48  75 1.48
 
  LATTYP: Found a simple monoclinic cell.
 ALAT       =    12.3703241348
 B/A-ratio  =     1.2248453018
 C/A-ratio  =     1.4141600350
 COS(beta)  =    -0.0000282295
  
  Lattice vectors:
  
 A1 = (   0.0000000000,  -0.0003492082,  12.3703241299)
 A2 = (  15.1517333984,   0.0000000000,   0.0000000000)
 A3 = (   0.0000000000,  17.4936180115,   0.0000000000)


Analysis of symmetry for initial positions (statically):
=====================================================================
 Subroutine PRICEL returns:
 Original cell was already a primitive cell.
 

 Routine SETGRP: Setting up the symmetry group for a 
 simple monoclinic supercell.


 Subroutine GETGRP returns: Found  1 space group operations
 (whereof  1 operations were pure point group operations)
 out of a pool of  4 trial point group operations.


The static configuration has the point symmetry C_1 .


Analysis of symmetry for dynamics (positions and initial velocities):
=====================================================================
 Subroutine PRICEL returns:
 Original cell was already a primitive cell.
 

 Routine SETGRP: Setting up the symmetry group for a 
 simple monoclinic supercell.


 Subroutine GETGRP returns: Found  1 space group operations
 (whereof  1 operations were pure point group operations)
 out of a pool of  4 trial point group operations.


The dynamic configuration has the point symmetry C_1 .


Analysis of structural, dynamic, and magnetic symmetry:
=====================================================================
 Subroutine PRICEL returns:
 Original cell was already a primitive cell.
 

 Routine SETGRP: Setting up the symmetry group for a 
 simple monoclinic supercell.


 Subroutine GETGRP returns: Found  1 space group operations
 (whereof  1 operations were pure point group operations)
 out of a pool of  4 trial point group operations.


The overall configuration has the point symmetry C_1 .


 Subroutine INISYM returns: Found  1 space group operations
 (whereof  1 operations are pure point group operations),
 and found     1 'primitive' translations


----------------------------------------------------------------------------------------

                                     Primitive cell                                     

  volume of cell :    3278.8612

  direct lattice vectors                    reciprocal lattice vectors
    15.151733398  0.000000000  0.000000000     0.065999049  0.000000000  0.000000000
     0.000000000 17.493618012  0.000000000     0.000000000  0.057163704  0.000001614
     0.000000000 -0.000349208 12.370324130     0.000000000  0.000000000  0.080838626

  length of vectors
    15.151733398 17.493618012 12.370324135     0.065999049  0.057163704  0.080838626

  position of ions in fractional coordinates (direct lattice)
     0.999995880  0.999983378  0.999995049
     0.999992784  0.999953528  0.500025575
     0.000037342  0.249986245  0.999936891
     0.000046917  0.249941658  0.499967673
     0.999985917  0.499986955  0.999978248
     0.999971717  0.499948998  0.499962899
     0.999958205  0.749968439  0.999993126
     0.999961941  0.749975319  0.500027673
     0.166653932  0.000008995  0.000015956
     0.166589731  0.000009497  0.500009082
     0.166669068  0.250005344  0.000037208
     0.166610601  0.249915864  0.500065286
     0.166663607  0.500008051  0.000172082
     0.166092823  0.499920316  0.500092909
     0.166639588  0.750004754  0.000065320
     0.166651391  0.750002915  0.500037174
     0.333335387  0.000050986  0.999999128
     0.333358338  0.000137593  0.499995468
     0.333353784  0.250039945  0.000186872
     0.332963376  0.249647817  0.500093744
     0.333309034  0.500025991  0.000440823
     0.333503662  0.499375803  0.500265402
     0.333333465  0.750023594  0.000036844
     0.333134771  0.750555084  0.499928712
     0.500001244  0.000070531  0.999960692
     0.500003435  0.000117064  0.499988258
     0.500004347  0.249967045  0.000308251
     0.500321277  0.250757598  0.500015188
     0.499998037  0.499981199  0.000341819
     0.499986912  0.750095435  0.999815295
     0.500006330  0.750377650  0.499896359
     0.666659835  0.000059866  0.999949702
     0.666676558  0.000108102  0.499979830
     0.666667286  0.250044872  0.999935772
     0.667044501  0.249718957  0.499851114
     0.666628435  0.499994711  0.000054284
     0.666741501  0.498248308  0.497888735
     0.666621131  0.749990487  0.999929444
     0.666837693  0.750513557  0.499813256
     0.833339307  0.000007602  0.999979320
     0.833398779  0.000012669  0.500004451
     0.833382626  0.249983753  0.999868178
     0.833508398  0.249877953  0.499913373
     0.833302901  0.499971992  0.999848648
     0.833886537  0.499865906  0.499761988
     0.833283283  0.749971882  0.999938887
     0.833258244  0.749862141  0.499964808
     0.083335983  0.124994447  0.999983763
     0.083309212  0.124953875  0.500012919
     0.083358153  0.374992842  0.999996853
     0.083286197  0.374953679  0.500036819
     0.083278742  0.624993260  0.000090169
     0.083333073  0.625005171  0.500033073
     0.083310048  0.874985715  0.000008339
     0.083291739  0.874984176  0.500019605
     0.250003066  0.125026087  0.000049683
     0.249868148  0.124885808  0.500022156
     0.249976437  0.374990965  0.000132102
     0.249850498  0.374928147  0.500246127
     0.249891300  0.625050976  0.000404511
     0.250247650  0.624851853  0.500053331
     0.249992529  0.875019014  0.999995095
     0.249918911  0.875207188  0.499981905
     0.416667408  0.125045601  0.000066782
     0.416793415  0.125234419  0.500027296
     0.416777594  0.375030971  0.000587975
     0.416061800  0.375654403  0.500196128
     0.416607538  0.624984774  0.000275232
     0.416737465  0.626277345  0.499350848
     0.416670843  0.875072639  0.999907072
     0.416638669  0.875205938  0.499960813
     0.583335165  0.125078772  0.999929568
     0.583335466  0.125149867  0.499979483
     0.583290610  0.374997870  0.000255388
     0.584935553  0.376185832  0.498183466
     0.583323009  0.624897699  0.000190778
     0.583197248  0.626233564  0.499029316
     0.583321791  0.875075525  0.999878201
     0.583369405  0.875194724  0.499947118
     0.750009219  0.125028151  0.999931145
     0.750135749  0.124924890  0.499949006
     0.750103409  0.374939776  0.999702261
     0.750527777  0.374753109  0.499810136
     0.749965797  0.624974912  0.999996647
     0.749628607  0.624455462  0.499794562
     0.749981893  0.875007777  0.999946167
     0.750066800  0.875168417  0.499958761
     0.916694926  0.124990352  0.999941874
     0.916734683  0.124946608  0.499979591
     0.916726915  0.374970984  0.999821457
     0.916856490  0.374910797  0.499898579
     0.916596229  0.624960397  0.999893458
     0.916619350  0.624970452  0.499935216
     0.916650081  0.874978099  0.999984556
     0.916648094  0.874948296  0.500013568
     0.000032716  0.083299657  0.333322843
     0.999991086  0.083319061  0.833330109
     0.000122000  0.333296722  0.333280035
     0.999993407  0.333319301  0.833266885
     0.000060818  0.583330893  0.333326627
     0.999890046  0.583305414  0.833323933
     0.999997392  0.833326369  0.333352230
     0.999954797  0.833289223  0.833331952
     0.166651688  0.083337504  0.333329260
     0.166659459  0.083329031  0.833349487
     0.166756999  0.333353850  0.333445479
     0.166646224  0.333328423  0.833381004
     0.166772438  0.583334733  0.333488439
     0.166568134  0.583315446  0.833491253
     0.166672333  0.833377653  0.333344022
     0.166648373  0.833322848  0.833339264
     0.333343894  0.083445090  0.333359310
     0.333304493  0.083361180  0.833355366
     0.333361743  0.333353075  0.333702164
     0.333312013  0.333359420  0.833558542
     0.333591521  0.583335790  0.333824038
     0.332982378  0.583403619  0.834149330
     0.333281603  0.833538845  0.333280470
     0.333315063  0.833343636  0.833293545
     0.500022542  0.083439981  0.333367208
     0.500000305  0.083427693  0.833286097
     0.500118697  0.333613662  0.333779322
     0.499903902  0.333144548  0.834086542
     0.500178239  0.584732195  0.332942271
     0.499795257  0.583248888  0.833364997
     0.500022483  0.833512064  0.333264991
     0.499981299  0.833358565  0.833247579
     0.666720138  0.083399244  0.333290474
     0.666664025  0.083401810  0.833260343
     0.667145703  0.333054753  0.332970216
     0.666572814  0.333420518  0.833136336
     0.666765210  0.583359005  0.333232714
     0.666480312  0.583247759  0.833396839
     0.666758090  0.833546483  0.333224414
     0.666628295  0.833318155  0.833247014
     0.833412495  0.083307543  0.333280769
     0.833317612  0.083346321  0.833293708
     0.833581013  0.333235948  0.333130906
     0.833308904  0.333325797  0.833144001
     0.833429159  0.583313319  0.333209663
     0.833076520  0.583213484  0.832990702
     0.833330089  0.833349109  0.333307633
     0.833264724  0.833287634  0.833286555
     0.083389873  0.208320510  0.333337154
     0.083346335  0.208324638  0.833334274
     0.083391079  0.458320784  0.333372550
     0.083296541  0.458328543  0.833393131
     0.083361125  0.708349473  0.333417044
     0.083309357  0.708301485  0.833355581
     0.083344461  0.958329016  0.333347417
     0.083328518  0.958316127  0.833361933
     0.249979408  0.208318793  0.333436437
     0.249984594  0.208343013  0.833438727
     0.250062828  0.458394287  0.333703178
     0.249939898  0.458332081  0.833557512
     0.250038759  0.708388780  0.333463701
     0.249981788  0.708335425  0.833399447
     0.249982132  0.958445891  0.333341933
     0.249986447  0.958348673  0.833365176
     0.416724472  0.208509767  0.333481119
     0.416609476  0.208370614  0.833445812
     0.417128109  0.458615505  0.336361468
     0.416485544  0.458274474  0.833736552
     0.416616719  0.708724009  0.333158221
     0.416615837  0.708271108  0.833299224
     0.416652684  0.958463977  0.333316759
     0.416652015  0.958389908  0.833289662
     0.583420133  0.208417996  0.333366095
     0.583340595  0.208492805  0.833114992
     0.585368903  0.457544516  0.335034267
     0.583130041  0.458243890  0.833361218
     0.583512875  0.708783972  0.333008182
     0.583235830  0.708222666  0.833222818
     0.583370603  0.958458192  0.333297734
     0.583338670  0.958390052  0.833277953
     0.750198051  0.208225280  0.333231691
     0.749977739  0.208381961  0.833270598
     0.750696100  0.458212044  0.332834156
     0.749786873  0.458298791  0.833098378
     0.750022907  0.708348954  0.333292164
     0.749825317  0.708244192  0.833186168
     0.750043310  0.958430506  0.333324384
     0.749978817  0.958351515  0.833330967
     0.916755416  0.208280299  0.333257217
     0.916650112  0.208332576  0.833273485
     0.916912322  0.458282860  0.333163400
     0.916571601  0.458314170  0.833232961
     0.916667059  0.708336863  0.333343685
     0.916540524  0.708257896  0.833253831
     0.916668677  0.958316781  0.333342217
     0.916627435  0.958314661  0.833349195
     0.000046643  0.166647460  0.166610682
     0.999996275  0.166642222  0.666650204
     0.000101059  0.416639657  0.166571453
     0.999944918  0.416643757  0.666637099
     0.999996398  0.666667074  0.166675800
     0.999916954  0.666621480  0.666649390
     0.999999172  0.916658394  0.166661721
     0.999965261  0.916624545  0.666682645
     0.166670608  0.166682244  0.166679739
     0.166632698  0.166651308  0.666711450
     0.166719825  0.416668610  0.166779483
     0.166589081  0.416654554  0.666785694
     0.166660471  0.666698467  0.166866229
     0.166709479  0.666614270  0.666685419
     0.166661574  0.916700030  0.166669067
     0.166635162  0.916674650  0.666696182
     0.333363253  0.166751541  0.166782385
     0.333281569  0.166700206  0.666754890
     0.333276742  0.416641521  0.166973371
     0.333285279  0.416698548  0.666819810
     0.333359036  0.666720986  0.166874512
     0.333507090  0.666478741  0.666585629
     0.333328003  0.916779219  0.166621997
     0.333328417  0.916733266  0.666644973
     0.500030702  0.166724406  0.166770981
     0.500023192  0.166891586  0.666569578
     0.500371603  0.416907713  0.167900356
     0.499377420  0.417326392  0.666903981
     0.500047373  0.667117814  0.166236489
     0.499831091  0.666447690  0.666352115
     0.500005448  0.916772142  0.166595517
     0.499991791  0.916733781  0.666607663
     0.666717582  0.166706431  0.166622434
     0.666644172  0.166791738  0.666605607
     0.667172257  0.416475815  0.166155760
     0.666309006  0.416725254  0.666228648
     0.666719097  0.666697352  0.166669596
     0.666158840  0.666316592  0.666314088
     0.666683610  0.916777171  0.166585391
     0.666645637  0.916710201  0.666630771
     0.833429302  0.166634658  0.166561555
     0.833348535  0.166675731  0.666626705
     0.833587094  0.416596044  0.166357338
     0.833244333  0.416629976  0.666509232
     0.833359123  0.666673326  0.166642774
     0.833061191  0.666496713  0.666472924
     0.833341855  0.916687906  0.166642784
     0.833300897  0.916653387  0.666681106
     0.083344507  0.041665732  0.166645123
     0.083318126  0.041644032  0.666685199
     0.083394501  0.291664462  0.166653585
     0.083320565  0.291643763  0.666664048
     0.083383042  0.541671073  0.166732434
     0.083228103  0.541640736  0.666748563
     0.083338889  0.791675875  0.166686812
     0.083316698  0.791629803  0.666673653
     0.250000069  0.041729510  0.166650100
     0.249966268  0.041680646  0.666660647
     0.250010379  0.291692019  0.166762508
     0.249954945  0.291666484  0.666762474
     0.250075760  0.541689055  0.166981031
     0.249978981  0.541525349  0.666802911
     0.250006268  0.791719016  0.166673457
     0.249995145  0.791672152  0.666657995
     0.416661664  0.041750558  0.166674298
     0.416668695  0.041781465  0.666627553
     0.416744604  0.291761890  0.167038450
     0.416535890  0.291867822  0.666743416
     0.416751467  0.541635068  0.167496113
     0.416812648  0.541039416  0.666986640
     0.416659917  0.791839339  0.166522911
     0.416640096  0.791679476  0.666600288
     0.583352994  0.041750078  0.166621304
     0.583338572  0.041769850  0.666614291
     0.583407261  0.291695711  0.166794467
     0.583244651  0.292226658  0.665864470
     0.583461022  0.541389744  0.167420899
     0.581397499  0.540755983  0.665112858
     0.583376133  0.791848193  0.166464181
     0.583285239  0.791648062  0.666570641
     0.750028573  0.041706744  0.166594218
     0.749996193  0.041708409  0.666623350
     0.750191012  0.291581391  0.166426885
     0.749981012  0.291700849  0.666512958
     0.750097453  0.541653884  0.166559500
     0.749244553  0.541348662  0.665729152
     0.750004980  0.791698261  0.166589855
     0.749897393  0.791589180  0.666591992
     0.916690016  0.041652119  0.166623972
     0.916649974  0.041647524  0.666674422
     0.916766968  0.291627986  0.166513490
     0.916667483  0.291644383  0.666576158
     0.916710874  0.541658318  0.166569301
     0.916477014  0.541615577  0.666581408
     0.916646823  0.791667221  0.166643425
     0.916579180  0.791591514  0.666639594
     0.000009699  0.999985607  0.124968259
     0.999979103  0.999961481  0.625015304
     0.000070026  0.249982585  0.124909744
     0.000008071  0.249972931  0.624952601
     0.000054992  0.500010036  0.124940904
     0.999882803  0.499996490  0.624978064
     0.999985445  0.750002975  0.124983340
     0.999938889  0.749966891  0.625000446
     0.166659363  0.000023378  0.124977553
     0.166625267  0.999991883  0.625003973
     0.166698536  0.250014000  0.124995526
     0.166643095  0.249971964  0.625048539
     0.166724465  0.500023705  0.125129154
     0.166466255  0.500014860  0.625114274
     0.166653196  0.750022855  0.125040290
     0.166644590  0.749976557  0.625010992
     0.333334622  0.000075293  0.124959016
     0.333337827  0.000078744  0.624972637
     0.333389462  0.250079966  0.125147169
     0.333272225  0.249934551  0.625101737
     0.333409972  0.500003415  0.125387162
     0.333165027  0.499964306  0.625223261
     0.333350608  0.750054034  0.124995195
     0.333297352  0.750019357  0.624972295
     0.500002701  0.000074297  0.124952402
     0.500002164  0.000073574  0.624960344
     0.500034383  0.250008357  0.125183485
     0.499981592  0.250330137  0.624857532
     0.500087425  0.500004957  0.125604881
     0.500025907  0.750219286  0.124565606
     0.499956186  0.749996159  0.624880702
     0.666675643  0.000073793  0.124917140
     0.666658105  0.000066908  0.624956851
     0.666718304  0.250023270  0.124915791
     0.666652195  0.250113077  0.624796899
     0.666773335  0.499945803  0.124983678
     0.665300557  0.499415459  0.623603496
     0.666670828  0.750045561  0.124880312
     0.666565771  0.749929782  0.624851300
     0.833357282  0.000012282  0.124944638
     0.833336190  0.000001521  0.624988432
     0.833449234  0.249950510  0.124810919
     0.833354519  0.249990169  0.624907022
     0.833413347  0.499988388  0.124808124
     0.833169034  0.499926372  0.624724753
     0.833331360  0.750008751  0.124923348
     0.833216587  0.749895038  0.624914035
     0.083353348  0.124993986  0.124957268
     0.083310222  0.124967734  0.625010387
     0.083405562  0.375007573  0.124962725
     0.083283961  0.374993299  0.625037078
     0.083323758  0.625022537  0.125067947
     0.083285128  0.624985519  0.625027156
     0.083320716  0.875001040  0.124992485
     0.083295339  0.874973063  0.625015260
     0.250018754  0.125054248  0.125024921
     0.249958152  0.124973013  0.625034453
     0.250024478  0.375009442  0.125012043
     0.249920615  0.374996264  0.625202560
     0.249970183  0.625058145  0.125256315
     0.250068131  0.624893932  0.625032692
     0.249997906  0.875051750  0.124974497
     0.249964423  0.875054777  0.624990373
     0.416687476  0.125061298  0.125048943
     0.416695718  0.125144143  0.624990097
     0.416830100  0.375120586  0.125717123
     0.416532069  0.375023178  0.625176094
     0.416716669  0.625035135  0.125218367
     0.416851994  0.624743392  0.624577016
     0.416662050  0.875110815  0.124874656
     0.416651611  0.875056194  0.624954819
     0.583345306  0.125071489  0.124953395
     0.583314628  0.125124113  0.624953274
     0.583461519  0.375040392  0.125253867
     0.583053605  0.376099391  0.624000926
     0.583376671  0.624966920  0.125259914
     0.582679583  0.624641538  0.624126165
     0.583351928  0.875118690  0.124838953
     0.583328611  0.875042688  0.624939125
     0.750043251  0.125025012  0.124912714
     0.750011525  0.125041959  0.624948334
     0.750286391  0.374896085  0.124497129
     0.749971526  0.374987688  0.624800169
     0.750054275  0.625021614  0.124931253
     0.749576886  0.624737430  0.624654712
     0.750002745  0.875045184  0.124928482
     0.749975699  0.875006398  0.624961392
     0.916724765  0.124975687  0.124913115
     0.916684727  0.124975025  0.624980279
     0.916825765  0.374968800  0.124757763
     0.916664899  0.374980207  0.624903007
     0.916667933  0.625001601  0.124911323
     0.916531568  0.624953502  0.624917528
     0.916666898  0.874996175  0.124969904
     0.916622397  0.874952822  0.625000420
     0.000018063  0.083275724  0.458340883
     0.000006595  0.083318168  0.958303098
     0.000090523  0.333279361  0.458309370
     0.000039252  0.333328527  0.958238382
     0.999991317  0.583333465  0.458326731
     0.999935469  0.583331528  0.958307539
     0.999970189  0.833308060  0.458360389
     0.999968931  0.833304944  0.958321486
     0.166597886  0.083252350  0.458346024
     0.166667811  0.083333166  0.958328932
     0.166631637  0.333287212  0.458482073
     0.166673012  0.333332394  0.958320674
     0.166650634  0.583320649  0.458456311
     0.166590644  0.583362683  0.958494121
     0.166634580  0.833376018  0.458343096
     0.166640954  0.833328972  0.958328191
     0.333364625  0.083461371  0.458342591
     0.333331980  0.083359409  0.958338682
     0.333011708  0.332483411  0.458836659
     0.333377630  0.333363956  0.958607211
     0.333835358  0.583234062  0.458523225
     0.333072375  0.583427813  0.958835290
     0.333133798  0.833677882  0.458320478
     0.333328108  0.833356268  0.958278464
     0.500026433  0.083451006  0.458362505
     0.499996040  0.083395496  0.958297778
     0.500169438  0.334642751  0.458211073
     0.499992579  0.333150911  0.958817467
     0.499965518  0.583306392  0.958479746
     0.500020888  0.833572072  0.458303147
     0.499996256  0.833390571  0.958154473
     0.666700521  0.083413241  0.458293713
     0.666661479  0.083384906  0.958244357
     0.667393659  0.332603098  0.458116732
     0.666631146  0.333368912  0.958218425
     0.665826666  0.582824792  0.457651513
     0.666688285  0.583327087  0.958357328
     0.666884646  0.833662358  0.458267787
     0.666643829  0.833341137  0.958225768
     0.833428299  0.083276206  0.458305516
     0.833339162  0.083340242  0.958268372
     0.833660440  0.333177435  0.458184051
     0.833389293  0.333311229  0.958059063
     0.833368303  0.583225927  0.458185174
     0.833215305  0.583287984  0.958118300
     0.833296463  0.833300908  0.458302794
     0.833303388  0.833310444  0.958268236
     0.083351148  0.208281237  0.458351756
     0.083365844  0.208326288  0.958301608
     0.083082907  0.458363807  0.458415400
     0.083338906  0.458349116  0.958363476
     0.083307333  0.708350668  0.458398128
     0.083307370  0.708323310  0.958354226
     0.083315959  0.958302836  0.458352272
     0.083330724  0.958318500  0.958337627
     0.249861766  0.208045111  0.458451850
     0.250014900  0.208352759  0.958414113
     0.249025262  0.458545662  0.458848036
     0.249983586  0.458351502  0.958528187
     0.249993858  0.708381087  0.458429977
     0.249961210  0.708352379  0.958430996
     0.249942145  0.958473605  0.458344428
     0.249992491  0.958353240  0.958342699
     0.416755585  0.208651556  0.458392124
     0.416656363  0.208344228  0.958456440
     0.416597683  0.458309005  0.958723620
     0.416049436  0.709235476  0.458367518
     0.416632941  0.708320974  0.958320101
     0.416658433  0.958474391  0.458322083
     0.416655361  0.958391632  0.958264655
     0.583430115  0.208495925  0.458327736
     0.583332499  0.208420133  0.958255563
     0.583311228  0.458318816  0.958436231
     0.584036111  0.709244792  0.458178786
     0.583313622  0.708282421  0.958283042
     0.583365052  0.958468668  0.458310833
     0.583344984  0.958393161  0.958248065
     0.750230545  0.208116279  0.458258746
     0.750001196  0.208364143  0.958247602
     0.751329025  0.458205995  0.457930461
[...]
 196       0.004     0.000    -0.005       0.673
 197       0.005     0.002    -0.008       0.283
 198      -0.002     0.000     0.002       0.994
 199      -0.003    -0.001     0.003       0.684
 200       0.004    -0.003     0.005      -1.391
 201       0.004     0.003    -0.008       0.095
 202       0.018    -0.000     0.028      -0.648
 203       0.020    -0.012     0.029      -1.117
 204      -0.004     0.003    -0.012      -0.586
 205       0.009    -0.009     0.013      -1.433
 206       0.002     0.001    -0.004       0.151
 207       0.002    -0.000    -0.006       0.311
 208      -0.006    -0.001    -0.017      -0.299
 209       0.004     0.001    -0.019       0.190
 210      -0.548    -0.545    -0.797      -0.004
 211       0.136     0.052     0.173      -0.487
 212       0.009    -0.009     0.015      -1.237
 213       0.029     0.020    -0.030       0.277
 214       0.004     0.001    -0.005       0.584
 215       0.004     0.004    -0.008       0.112
 216       0.005    -0.002    -0.011       0.702
 217      -0.010     0.010     0.013       1.483
 218       0.057     0.010     0.064      -0.738
 219       1.162     0.935     1.223      -0.186
 220      -0.023    -0.014    -0.054      -0.165
 221       0.088    -0.000     0.099      -0.888
 222       0.005     0.001    -0.006       0.699
 223       0.007     0.005    -0.009       0.205
 224      -0.004     0.002     0.005       1.089
 225       0.002     0.001    -0.016       0.036
 226      -0.007     0.003    -0.031      -0.331
 227       0.090     0.002     0.103      -0.853
 228       0.008    -0.000    -0.009       0.866
 229       0.058     0.020     0.067      -0.565
 230       0.003     0.001    -0.004       0.456
 231       0.004     0.003    -0.007       0.081
 232       0.002     0.001    -0.002       0.315
 233       0.004     0.001    -0.005       0.562
 234      -0.007    -0.001     0.008       0.757
 235      -0.014     0.011     0.015       1.640
 236      -0.015    -0.009    -0.023      -0.255
 237      -0.003    -0.001    -0.024      -0.081
 238       0.002     0.001    -0.002       0.409
 239       0.003     0.001    -0.004       0.730
 240       0.002     0.001    -0.002       0.441
 241       0.003     0.000    -0.004       0.630
 242       0.006     0.001    -0.007       0.629
 243      -0.008     0.006     0.009       1.582
 244      -0.006     0.002    -0.017      -0.438
 245       0.005    -0.001    -0.022       0.267
 246       0.001     0.001    -0.002       0.066
 247       0.004     0.001    -0.004       0.625
 248       0.002     0.000    -0.006       0.296
 249       0.002     0.001    -0.008       0.058
 250       0.019     0.001     0.025      -0.709
 251       0.019    -0.012     0.025      -1.231
 252       0.016    -0.013     0.023      -1.267
 253       0.086     0.057     0.112      -0.261
 254      -0.004     0.002     0.006       1.024
 255       0.002     0.001    -0.015       0.018
 256       0.005     0.001    -0.007       0.568
 257       0.006     0.004    -0.009       0.228
 258       0.016    -0.013     0.023      -1.288
 259       0.086     0.057     0.110      -0.262
 260       0.063     0.015     0.069      -0.695
 261       1.072     0.842     1.138      -0.202
 262      -0.006     0.001     0.007       0.971
 263       0.013     0.011    -0.014       0.125
 264       0.004     0.001    -0.005       0.583
 265       0.005     0.004    -0.008       0.155
 266       0.009    -0.009     0.015      -1.213
 267       0.029     0.021    -0.030       0.272
 268       0.018     0.007    -0.035       0.288
 269       0.414    -0.127     0.448      -1.209
 270      -0.005     0.000     0.006       0.894
 271      -0.013     0.011     0.014       1.732
 272       0.002     0.001    -0.003       0.141
 273       0.002     0.000    -0.006       0.291
 274       0.006     0.000    -0.006       0.902
 275      -0.012     0.011     0.012       1.902
 276      -0.008     0.000     0.011       0.734
 277       0.055     0.014     0.065      -0.628
 278      -0.003     0.001     0.003       1.131
 279       0.008    -0.004     0.008      -1.480
 280      -0.002     0.000     0.002       0.846
 281      -0.002    -0.000     0.003       0.648
 282       0.004     0.001    -0.004       0.787
 283       0.005     0.004    -0.007       0.225
 284       0.005    -0.002    -0.009       0.828
 285       0.008     0.003    -0.015       0.286
 286       0.001     0.000    -0.002       0.634
 287       0.003    -0.001    -0.005       0.717
 288       0.002     0.000    -0.002       0.811
 289       0.003    -0.000    -0.003       1.095
 290      -0.004    -0.001    -0.011      -0.242
 291      -0.005    -0.004    -0.014      -0.073
 292       0.006    -0.001    -0.009       0.879
 293       0.011    -0.009     0.016      -1.225
 294      -0.001     0.000    -0.004      -0.252
 295       0.004     0.001    -0.004       0.706
 296       0.002     0.001    -0.003       0.146
 297      -0.004     0.003     0.005       1.457
 298      -0.005    -0.001    -0.020      -0.223
 299      -0.005     0.001    -0.021      -0.299
 300       0.008     0.001    -0.013       0.542
 301       0.025    -0.007     0.044      -0.744
 302      -0.003     0.002     0.005       0.877
 303       0.006     0.005    -0.009       0.139
 304       0.004     0.001    -0.005       0.567
 305       0.004     0.003    -0.009       0.095
 306       0.006     0.002    -0.013       0.314
 307       0.024    -0.005     0.041      -0.723
 308      -0.030    -0.026    -0.079      -0.039
 309       0.177    -0.033    -0.195       1.073
 310      -0.004     0.003    -0.009      -0.823
 311      -0.007    -0.006    -0.039      -0.027
 312       0.004     0.001    -0.006       0.571
 313       0.005     0.003    -0.009       0.188
 314      -0.048    -0.037    -0.058      -0.193
 315       0.041     0.013     0.064      -0.450
 316       0.011     0.006    -0.073       0.070
 317       0.007    -0.002    -0.010       0.888
 318      -0.064    -0.058    -0.120      -0.047
 319       0.003     0.001    -0.004       0.334
 320       0.003     0.002    -0.007       0.101
 321       0.004    -0.003    -0.007       0.877
 322      -0.009    -0.009    -0.040      -0.015
 323       0.015     0.005    -0.021       0.502
 324      -0.314    -0.279    -0.492      -0.072
 325      -0.004    -0.001     0.005       0.480
 326       0.005     0.004    -0.021       0.072
 327       0.002     0.000    -0.002       0.520
 328       0.002    -0.000    -0.004       0.708
 329       0.003    -0.001    -0.004       0.966
 330      -0.001    -0.000    -0.014      -0.068
 331      -0.006    -0.002     0.009       0.390
 332       0.017     0.013    -0.017       0.237
 333       0.002    -0.000    -0.003       0.664
 334       0.004     0.003    -0.008       0.228
 335       0.001     0.000    -0.004       0.099
 336       0.002    -0.000    -0.006       0.325
 337      -0.006     0.001    -0.021      -0.359
 338      -0.008     0.000    -0.025      -0.321
 339      -0.005     0.000     0.005       1.013
 340       0.007     0.004    -0.014       0.226
 341       0.001     0.000    -0.002       0.355
 342       0.003     0.000    -0.003       0.895
 343       0.004     0.001    -0.005       0.554
 344       0.010    -0.004     0.011      -1.209
 345      -0.156    -0.141    -0.259      -0.059
 346      -0.064    -0.005    -0.102      -0.587
 347      -0.053    -0.043    -0.063      -0.157
 348       0.028     0.000     0.051      -0.547
 349       0.004     0.001    -0.004       0.615
 350       0.003     0.003    -0.009       0.054
 351      -0.005     0.001     0.006       1.164
 352       0.008     0.005    -0.013       0.200
 353      -0.051    -0.047    -0.100      -0.038
 354       0.160    -0.048    -0.230       0.906
 355      -0.018    -0.010    -0.044      -0.185
 356      -0.537    -0.525    -0.785      -0.016
 357       0.005    -0.000    -0.006       0.895
 358       0.003     0.001    -0.015       0.124
 359      -0.003     0.002     0.007       0.790
 360       0.007     0.005    -0.011       0.137
 361      -0.012    -0.004    -0.037      -0.218
 362      -0.577    -0.567    -0.826      -0.012
 363       0.009     0.001    -0.024       0.338
 364      -0.309    -0.262    -0.474      -0.100
 365       0.004     0.000    -0.005       0.864
 366       0.002     0.000    -0.016       0.077
 367       0.001     0.001    -0.003       0.207
 368       0.002     0.000    -0.008       0.219
 369       0.007    -0.002    -0.008       1.185
 370      -0.069    -0.062    -0.122      -0.056
 371      -0.020    -0.011    -0.035      -0.280
 372      -0.056    -0.050    -0.094      -0.064
 373       0.002     0.001    -0.003       0.279
 374       0.004     0.002    -0.006       0.308
 375      -0.001     0.001    -0.002      -1.232
 376      -0.002     0.002    -0.003      -1.235
 377       0.005    -0.002    -0.007       1.030
 378      -0.003    -0.001    -0.020      -0.117
 379       0.003    -0.002    -0.007       0.780
 380       0.007     0.005    -0.010       0.167
 381       0.001    -0.000    -0.002       1.041
 382      -0.003    -0.001     0.003       0.655
 383       0.002    -0.001    -0.004       0.873
 384       0.001    -0.000    -0.002       0.908
 385      -0.004    -0.001    -0.022      -0.131
 386      -0.005     0.001    -0.009      -0.692
 387      -0.008    -0.007    -0.027      -0.051
 388      -0.005     0.000     0.007       0.764
 389      -0.003     0.002    -0.004      -1.117
 390       0.001    -0.001    -0.001       1.482
 391      -0.014    -0.011    -0.025      -0.129
 392       0.002     0.001    -0.003       0.411
 393      -0.103    -0.100    -0.191      -0.018
 394      -0.029    -0.017    -0.052      -0.240
 395      -0.019    -0.018    -0.062      -0.023
 396       0.005    -0.000     0.015      -0.372
 397      -0.001     0.001    -0.010      -0.162
 398       0.002     0.001    -0.003       0.350
 399      -0.001    -0.000    -0.018      -0.044
 400      -0.004     0.001     0.005       0.982
 401      -1.726    -1.698    -2.468      -0.011
 402      -0.024    -0.016    -0.048      -0.153
 403      -0.585    -0.570    -0.826      -0.018
 404      -0.068    -0.058    -0.155      -0.064
 405       0.006     0.005    -0.012       0.130
 406      -0.005     0.001     0.005       1.062
 407       0.008     0.006    -0.009       0.185
 408       0.005     0.000    -0.006       0.842
 409      -0.593    -0.580    -0.836      -0.015
 410      -0.061    -0.052    -0.146      -0.064
 411      -0.063    -0.061    -0.156      -0.013
 412       0.007     0.005    -0.014       0.166
 413       0.004    -0.003    -0.009       0.756
 414       0.004     0.003    -0.008       0.094
 415       0.003     0.001    -0.004       0.470
 416       0.011     0.005    -0.042       0.147
 417       0.010     0.003    -0.011       0.676
 418      -0.035     0.034     0.044       1.572
 419      -0.163    -0.152    -0.262      -0.042
 420       0.006     0.005    -0.009       0.090
 421       0.004     0.001    -0.005       0.572
 422      -0.003     0.000     0.004       0.896
 423       0.002     0.000    -0.002       0.616
 424       0.004     0.002    -0.016       0.160
 425      -0.004     0.003    -0.008      -0.837
 426       0.003    -0.000    -0.022       0.135
 427      -0.009    -0.001    -0.018      -0.395
 428      -0.003     0.002     0.004       1.152
 429       0.001     0.001    -0.003       0.136
 430      -0.005    -0.004    -0.020      -0.062
 431      -0.003     0.000    -0.006      -0.491
 432      -0.105    -0.098    -0.186      -0.042
 433      -0.006    -0.003     0.008       0.434
 434      -0.007     0.005     0.007       1.760
 435       0.003    -0.000    -0.004       0.749
 436       0.003    -0.000    -0.005       0.711
 437       0.002     0.001    -0.002       0.368
 438      -0.116    -0.110    -0.187      -0.037
 439      -0.004    -0.002     0.005       0.266
 440      -1.751    -1.723    -2.514      -0.011
 441      -0.023    -0.013    -0.046      -0.229
 442      -0.006    -0.005    -0.037      -0.035
 443      -0.004     0.002    -0.011      -0.641
 444       0.004     0.003    -0.007       0.116
 445       0.003     0.001    -0.004       0.428
 446      -0.015    -0.013    -0.058      -0.038
 447       0.006     0.000     0.015      -0.386
 448      -0.079    -0.076    -0.187      -0.013
 449       0.019     0.013    -0.036       0.180
 450       0.010     0.003    -0.011       0.714
 451       0.005     0.003    -0.010       0.154
 452       0.005     0.001    -0.006       0.644
 453      -0.004    -0.003    -0.035      -0.039
 454      -0.006     0.002    -0.012      -0.634
 455      -0.073    -0.069    -0.164      -0.027
 456       0.039    -0.005     0.047      -0.945
 457      -0.009     0.002     0.011       1.026
 458       0.003     0.003    -0.009       0.086
 459       0.004     0.001    -0.005       0.528
 460       0.005     0.004    -0.009       0.136
 461       0.003     0.001    -0.004       0.705
 462       0.025     0.017    -0.030       0.282
 463      -0.010    -0.000     0.012       0.834
 464       0.012    -0.008     0.013      -1.536
 465      -0.003     0.001    -0.011      -0.333
 466       0.003     0.001    -0.005       0.425
 467       0.002     0.001    -0.003       0.132
 468       0.002    -0.002    -0.007       0.594
 469      -0.002    -0.001    -0.005      -0.114
 470       0.004    -0.000    -0.028       0.152
 471       0.007    -0.000    -0.008       1.015
 472       0.004     0.002    -0.006       0.318
 473       0.001    -0.001    -0.005       0.366
 474       0.003    -0.001    -0.003       1.134
 475       0.002     0.000    -0.002       0.800
 476      -0.002     0.000    -0.008      -0.296
 477      -0.001     0.001    -0.004      -0.432
 478      -0.003     0.003    -0.020      -0.281
 479       0.007     0.000    -0.010       0.626
 480       0.005     0.002    -0.005       0.516
 481       0.005     0.002    -0.006       0.443
 482      -0.002    -0.000     0.002       0.812
 483      -0.002    -0.000     0.003       0.719
 484      -0.003    -0.002    -0.018      -0.054
 485       0.003     0.001    -0.006       0.300
 486      -0.086    -0.079    -0.167      -0.039
 487      -0.012    -0.005     0.016       0.428
 488      -0.021    -0.020    -0.038      -0.044
 489       0.007     0.003    -0.011       0.401
 490       0.003     0.002    -0.004       0.213
 491       0.002     0.001    -0.004       0.240
 492       0.006     0.004    -0.014       0.131
 493       0.006    -0.005     0.011      -1.078
 494      -2.172    -2.151    -3.082      -0.007
 495      -0.051     0.004    -0.102      -0.546
 496      -0.076    -0.070    -0.123      -0.050
 497      -0.027    -0.022    -0.065      -0.082
 498       0.004     0.002    -0.007       0.289
 499       0.004     0.002    -0.007       0.301
 500      -0.017    -0.013    -0.034      -0.107
 501       0.008     0.003    -0.012       0.434
 502      -0.415    -0.357    -0.555      -0.104
 503      -1.762    -1.736    -2.503      -0.011
 504       0.048     0.000     0.055      -0.870
 505      -0.049    -0.025    -0.096      -0.241
 506       0.005     0.002    -0.008       0.383
 507       0.003    -0.000    -0.011       0.272
 508       0.002     0.001    -0.011       0.061
 509       0.005     0.004    -0.008       0.204
 510      -0.022     0.021     0.030       1.430
 511      -0.047    -0.023    -0.094      -0.252
 512       0.013     0.007    -0.014       0.426
 513       0.010     0.006    -0.032       0.140
 514       0.003     0.002    -0.005       0.193
 515       0.003     0.002    -0.006       0.172
 516       0.002    -0.000    -0.004       0.610
 517       0.002     0.000    -0.005       0.285
 518       0.008     0.001    -0.012       0.574
 519      -0.005     0.002    -0.022      -0.314
 520      -0.006    -0.002    -0.014      -0.303
 521       0.007     0.004    -0.010       0.293
 522       0.002     0.000    -0.003       0.646
 523       0.002     0.000    -0.004       0.519
 524       0.002     0.000    -0.004       0.486
 525       0.002     0.001    -0.003       0.547
 526      -0.019    -0.017    -0.048      -0.055
 527      -0.016    -0.009    -0.025      -0.302
 528       0.007     0.004    -0.014       0.230
 529      -0.007     0.005     0.013       0.974
 530       0.003     0.001    -0.003       0.474
 531       0.003     0.001    -0.004       0.448
 532       0.004     0.003    -0.006       0.143
 533       0.004     0.002    -0.005       0.263
 534      -0.086    -0.082    -0.168      -0.023
 535      -0.011    -0.004     0.015       0.474
 536      -0.046    -0.031    -0.094      -0.157
 537       0.023    -0.006     0.042      -0.687
 538       0.001    -0.001    -0.013       0.128
 539       0.004     0.003    -0.009       0.189
 540       0.006     0.003    -0.007       0.337
 541       0.006     0.002    -0.007       0.428
 542      -0.047    -0.030    -0.093      -0.179
 543       0.023    -0.005     0.041      -0.699
 544      -0.403    -0.337    -0.536      -0.123
 545      -1.815    -1.788    -2.573      -0.011
 546       0.008     0.003    -0.012       0.366
 547      -0.005     0.000    -0.023      -0.225
 548       0.005     0.003    -0.006       0.290
 549       0.005     0.002    -0.007       0.318
 550      -0.071    -0.064    -0.117      -0.061
 551      -0.027    -0.021    -0.064      -0.087
 552       0.057    -0.020     0.070      -1.104
 553      -2.285    -2.268    -3.167      -0.006
 554       0.007     0.003    -0.009       0.420
 555      -0.005    -0.000    -0.023      -0.217
 556       0.003     0.001    -0.004       0.367
 557       0.003     0.002    -0.004       0.300
 558       0.006     0.002    -0.011       0.321
 559      -0.007    -0.002    -0.023      -0.208
 560      -0.013     0.007     0.016       1.245
 561      -0.007    -0.000    -0.048      -0.142
 562       0.003     0.002    -0.005       0.130
 563       0.001     0.001    -0.010       0.011
 564       0.002    -0.001    -0.003       1.166
 565      -0.002    -0.000     0.002       0.835
 566       0.002    -0.002    -0.010       0.399
 567      -0.005    -0.003    -0.012      -0.152
 568       0.008     0.002    -0.009       0.618
 569       0.005    -0.001    -0.014       0.427
 570       0.002    -0.000    -0.002       1.036
 571       0.003     0.000    -0.003       0.852
 572       0.638     0.560     0.761      -0.102
 573      -0.242    -0.035     0.400       0.517
 574     -14.790   -14.747   -25.744      -0.002
 575     -14.753   -14.714   -25.822      -0.002
 576       0.579     0.512     0.709      -0.095
 ---------------------------------------------------------------------



--------------------------------------------------------------------------------------------------------


     LOOP+:  cpu time 1240.5869: real time 1244.6027
    4ORBIT:  cpu time    0.0000: real time    0.0000

 total amount of memory used by VASP MPI-rank0   238698. kBytes
=======================================================================

   base      :      30000. kBytes
   nonlr-proj:       9221. kBytes
   fftplans  :      15014. kBytes
   grid      :      46644. kBytes
   one-center:        294. kBytes
   wavefun   :     137525. kBytes
 
  
  
 General timing and accounting informations for this job:
 ========================================================
  
                  Total CPU time used (sec):     1269.833
                            User time (sec):     1268.806
                          System time (sec):        1.027
                         Elapsed time (sec):     1274.496
  
                   Maximum memory used (kb):      436460.
                   Average memory used (kb):          N/A
  
                          Minor page faults:       185129
                          Major page faults:            0
                 Voluntary context switches:        13455
