 vasp.6.2.0 18Jan21 (build Apr 30 2021 19:00:08) gamma-only                     
  
 executed on             LinuxIFC date 2022.12.30  16:25:53
 running on   24 total cores
 distrk:  each k-point on   24 cores,    1 groups
 distr:  one band on NCORE=   6 cores,    4 groups


--------------------------------------------------------------------------------------------------------


 INCAR:
   SYSTEM = Diamond
   PREC = Normal
   ISTART = 0
   ICHARG = 11
   ISPIN = 2
   MAGMOM = 572*0.0 1*2.0 2*2.0 1*3
   NPAR = 4
   NELECT = 2303
   LHYPERFINE = T
   LEFG = T
   ENCUT = 700
   NELM = 1000
   NELMIN = 4
   EDIFF = 1E-06
   LREAL = Auto
   ALGO = Normal
   EDIFFG = -1E-02
   NSW = 0
   IBRION = 2
   ISIF = 2
   ISYM = 2
   POTIM = 0.5
   ISMEAR = 0
   SIGMA = 0.05
   NEDOS = 1000
   LWAVE = F
   LCHARG = F
   LVHAR = F
   LELF = F

 POTCAR:    PAW_PBE C 08Apr2002                   
 POTCAR:    PAW_PBE H 15Jun2001                   
 POTCAR:    PAW_PBE C 08Apr2002                   
 POTCAR:    PAW_PBE N 08Apr2002                   
 POTCAR:    PAW_PBE C 08Apr2002                   
   VRHFIN =C: s2p2                                                                                  
   LEXCH  = PE                                                                                      
   EATOM  =   147.1560 eV,   10.8157 Ry                                                             
                                                                                                    
   TITEL  = PAW_PBE C 08Apr2002                                                                     
   LULTRA =        F    use ultrasoft PP ?                                                          
   IUNSCR =        1    unscreen: 0-lin 1-nonlin 2-no                                               
   RPACOR =    1.200    partial core radius                                                         
   POMASS =   12.011; ZVAL   =    4.000    mass and valenz                                          
   RCORE  =    1.500    outmost cutoff radius                                                       
   RWIGS  =    1.630; RWIGS  =    0.863    wigner-seitz radius (au A)                               
   ENMAX  =  400.000; ENMIN  =  300.000 eV                                                          
   ICORE  =        2    local potential                                                             
   LCOR   =        T    correct aug charges                                                         
   LPAW   =        T    paw PP                                                                      
   EAUG   =  644.873                                                                                
   DEXC   =    0.000                                                                                
   RMAX   =    1.529    core radius for proj-oper                                                   
   RAUG   =    1.300    factor for augmentation sphere                                              
   RDEP   =    1.501    radius for radial grids                                                     
   RDEPT  =    1.300    core radius for aug-charge                                                  
                                                                                                    
   Atomic configuration                                                                             
    4 entries                                                                                       
     n  l   j            E        occ.                                                              
     1  0  0.50      -273.3789   2.0000                                                             
     2  0  0.50       -13.7508   2.0000                                                             
     2  1  0.50        -5.2854   2.0000                                                             
     3  2  1.50        -5.4423   0.0000                                                             
   Description                                                                                      
     l       E           TYP  RCUT    TYP  RCUT                                                     
     0    -13.7508458     23  1.200                                                                 
     0     -8.2022199     23  1.200                                                                 
     1     -5.2854383     23  1.500                                                                 
     1     34.0145650     23  1.500                                                                 
     2     -5.4423304      7  1.500                                                                 
  local pseudopotential read in
  partial core-charges read in
  partial kinetic energy density read in
  atomic valenz-charges read in
  non local Contribution for L=           0  read in
    real space projection operators read in
  non local Contribution for L=           0  read in
    real space projection operators read in
  non local Contribution for L=           1  read in
    real space projection operators read in
  non local Contribution for L=           1  read in
    real space projection operators read in
    PAW grid and wavefunctions read in
 
   number of l-projection  operators is LMAX  =           4
   number of lm-projection operators is LMMAX =           8
 
 POTCAR:    PAW_PBE H 15Jun2001                   
   VRHFIN =H: ultrasoft test                                                                        
   LEXCH  = PE                                                                                      
   EATOM  =    12.4884 eV,    0.9179 Ry                                                             
                                                                                                    
   TITEL  = PAW_PBE H 15Jun2001                                                                     
   LULTRA =        F    use ultrasoft PP ?                                                          
   IUNSCR =        0    unscreen: 0-lin 1-nonlin 2-no                                               
   RPACOR =    0.000    partial core radius                                                         
   POMASS =    1.000; ZVAL   =    1.000    mass and valenz                                          
   RCORE  =    1.100    outmost cutoff radius                                                       
   RWIGS  =    0.700; RWIGS  =    0.370    wigner-seitz radius (au A)                               
   ENMAX  =  250.000; ENMIN  =  200.000 eV                                                          
   RCLOC  =    0.701    cutoff for local pot                                                        
   LCOR   =        T    correct aug charges                                                         
   LPAW   =        T    paw PP                                                                      
   EAUG   =  400.000                                                                                
   RMAX   =    1.123    core radius for proj-oper                                                   
   RAUG   =    1.200    factor for augmentation sphere                                              
   RDEP   =    1.112    radius for radial grids                                                     
   RDEPT  =    0.926    core radius for aug-charge                                                  
                                                                                                    
   Atomic configuration                                                                             
    2 entries                                                                                       
     n  l   j            E        occ.                                                              
     1  0  0.50        -6.4927   1.0000                                                             
     2  1  0.50        -3.4015   0.0000                                                             
   Description                                                                                      
     l       E           TYP  RCUT    TYP  RCUT                                                     
     0     -6.4927494     23  1.100                                                                 
     0      6.8029130     23  1.100                                                                 
     1     -4.0817478     23  1.100                                                                 
  local pseudopotential read in
  atomic valenz-charges read in
  non local Contribution for L=           0  read in
    real space projection operators read in
  non local Contribution for L=           0  read in
    real space projection operators read in
  non local Contribution for L=           1  read in
    real space projection operators read in
    PAW grid and wavefunctions read in
 
   number of l-projection  operators is LMAX  =           3
   number of lm-projection operators is LMMAX =           5
 
 POTCAR:    PAW_PBE C 08Apr2002                   
   VRHFIN =C: s2p2                                                                                  
   LEXCH  = PE                                                                                      
   EATOM  =   147.1560 eV,   10.8157 Ry                                                             
                                                                                                    
   TITEL  = PAW_PBE C 08Apr2002                                                                     
   LULTRA =        F    use ultrasoft PP ?                                                          
   IUNSCR =        1    unscreen: 0-lin 1-nonlin 2-no                                               
   RPACOR =    1.200    partial core radius                                                         
   POMASS =   12.011; ZVAL   =    4.000    mass and valenz                                          
   RCORE  =    1.500    outmost cutoff radius                                                       
   RWIGS  =    1.630; RWIGS  =    0.863    wigner-seitz radius (au A)                               
   ENMAX  =  400.000; ENMIN  =  300.000 eV                                                          
   ICORE  =        2    local potential                                                             
   LCOR   =        T    correct aug charges                                                         
   LPAW   =        T    paw PP                                                                      
   EAUG   =  644.873                                                                                
   DEXC   =    0.000                                                                                
   RMAX   =    1.529    core radius for proj-oper                                                   
   RAUG   =    1.300    factor for augmentation sphere                                              
   RDEP   =    1.501    radius for radial grids                                                     
   RDEPT  =    1.300    core radius for aug-charge                                                  
                                                                                                    
   Atomic configuration                                                                             
    4 entries                                                                                       
     n  l   j            E        occ.                                                              
     1  0  0.50      -273.3789   2.0000                                                             
     2  0  0.50       -13.7508   2.0000                                                             
     2  1  0.50        -5.2854   2.0000                                                             
     3  2  1.50        -5.4423   0.0000                                                             
   Description                                                                                      
     l       E           TYP  RCUT    TYP  RCUT                                                     
     0    -13.7508458     23  1.200                                                                 
     0     -8.2022199     23  1.200                                                                 
     1     -5.2854383     23  1.500                                                                 
     1     34.0145650     23  1.500                                                                 
     2     -5.4423304      7  1.500                                                                 
  local pseudopotential read in
  partial core-charges read in
  partial kinetic energy density read in
  atomic valenz-charges read in
  non local Contribution for L=           0  read in
    real space projection operators read in
  non local Contribution for L=           0  read in
    real space projection operators read in
  non local Contribution for L=           1  read in
    real space projection operators read in
  non local Contribution for L=           1  read in
    real space projection operators read in
    PAW grid and wavefunctions read in
 
   number of l-projection  operators is LMAX  =           4
   number of lm-projection operators is LMMAX =           8
 
 POTCAR:    PAW_PBE N 08Apr2002                   
   VRHFIN =N: s2p3                                                                                  
   LEXCH  = PE                                                                                      
   EATOM  =   264.5486 eV,   19.4438 Ry                                                             
                                                                                                    
   TITEL  = PAW_PBE N 08Apr2002                                                                     
   LULTRA =        F    use ultrasoft PP ?                                                          
   IUNSCR =        1    unscreen: 0-lin 1-nonlin 2-no                                               
   RPACOR =    1.200    partial core radius                                                         
   POMASS =   14.001; ZVAL   =    5.000    mass and valenz                                          
   RCORE  =    1.500    outmost cutoff radius                                                       
   RWIGS  =    1.400; RWIGS  =    0.741    wigner-seitz radius (au A)                               
   ENMAX  =  400.000; ENMIN  =  300.000 eV                                                          
   ICORE  =        2    local potential                                                             
   LCOR   =        T    correct aug charges                                                         
   LPAW   =        T    paw PP                                                                      
   EAUG   =  627.112                                                                                
   DEXC   =    0.000                                                                                
   RMAX   =    1.529    core radius for proj-oper                                                   
   RAUG   =    1.300    factor for augmentation sphere                                              
   RDEP   =    1.514    radius for radial grids                                                     
   RDEPT  =    1.338    core radius for aug-charge                                                  
                                                                                                    
   Atomic configuration                                                                             
    4 entries                                                                                       
     n  l   j            E        occ.                                                              
     1  0  0.50      -384.7179   2.0000                                                             
     2  0  0.50       -18.5828   2.0000                                                             
     2  1  0.50        -7.0898   3.0000                                                             
     3  2  1.50        -6.8029   0.0000                                                             
   Description                                                                                      
     l       E           TYP  RCUT    TYP  RCUT                                                     
     0    -18.5828119     23  1.200                                                                 
     0    -13.5018863     23  1.200                                                                 
     1     -7.0897853     23  1.500                                                                 
     1      9.5240782     23  1.500                                                                 
     2     -6.8029130      7  1.500                                                                 
  local pseudopotential read in
  partial core-charges read in
  partial kinetic energy density read in
  atomic valenz-charges read in
  non local Contribution for L=           0  read in
    real space projection operators read in
  non local Contribution for L=           0  read in
    real space projection operators read in
  non local Contribution for L=           1  read in
    real space projection operators read in
  non local Contribution for L=           1  read in
    real space projection operators read in
    PAW grid and wavefunctions read in
 
   number of l-projection  operators is LMAX  =           4
   number of lm-projection operators is LMMAX =           8
 
 Optimization of the real space projectors (new method)

 maximal supplied QI-value         = 25.13
 optimisation between [QCUT,QGAM] = [ 13.32, 26.89] = [ 49.69,202.52] Ry 
 Optimized for a Real-space Cutoff    1.01 Angstroem

   l    n(q)    QCUT    max X(q) W(low)/X(q) W(high)/X(q)  e(spline) 
   0      8    13.321   115.676    0.29E-03    0.42E-03    0.11E-06
   0      8    13.321    87.132    0.29E-03    0.42E-03    0.11E-06
   1      8    13.321     4.429    0.39E-03    0.33E-03    0.98E-07
   1      8    13.321     2.733    0.30E-03    0.26E-03    0.97E-07
 Optimization of the real space projectors (new method)

 maximal supplied QI-value         = 34.20
 optimisation between [QCUT,QGAM] = [ 13.34, 27.02] = [ 49.83,204.46] Ry 
 Optimized for a Real-space Cutoff    0.93 Angstroem

   l    n(q)    QCUT    max X(q) W(low)/X(q) W(high)/X(q)  e(spline) 
   0      7    13.340    19.460    0.47E-03    0.72E-04    0.17E-06
   0      7    13.340    12.209    0.45E-03    0.63E-04    0.16E-06
   1      7    13.340     4.655    0.21E-03    0.61E-03    0.12E-06
 Optimization of the real space projectors (new method)

 maximal supplied QI-value         = 25.13
 optimisation between [QCUT,QGAM] = [ 13.32, 26.89] = [ 49.69,202.52] Ry 
 Optimized for a Real-space Cutoff    1.01 Angstroem

   l    n(q)    QCUT    max X(q) W(low)/X(q) W(high)/X(q)  e(spline) 
   0      8    13.321   115.676    0.29E-03    0.42E-03    0.11E-06
   0      8    13.321    87.132    0.29E-03    0.42E-03    0.11E-06
   1      8    13.321     4.429    0.39E-03    0.33E-03    0.98E-07
   1      8    13.321     2.733    0.30E-03    0.26E-03    0.97E-07
 Optimization of the real space projectors (new method)

 maximal supplied QI-value         = 25.13
 optimisation between [QCUT,QGAM] = [ 13.32, 26.89] = [ 49.69,202.52] Ry 
 Optimized for a Real-space Cutoff    1.01 Angstroem

   l    n(q)    QCUT    max X(q) W(low)/X(q) W(high)/X(q)  e(spline) 
   0      8    13.321    79.467    0.28E-03    0.38E-03    0.11E-06
   0      8    13.321    66.151    0.27E-03    0.38E-03    0.11E-06
   1      8    13.321    23.070    0.40E-03    0.78E-03    0.29E-06
   1      8    13.321    16.668    0.40E-03    0.79E-03    0.30E-06
  PAW_PBE C 08Apr2002                   :
 energy of atom  1       EATOM= -147.1560
 kinetic energy error for atom=    0.0032 (will be added to EATOM!!)
  PAW_PBE H 15Jun2001                   :
 energy of atom  2       EATOM=  -12.4884
 kinetic energy error for atom=    0.0002 (will be added to EATOM!!)
  PAW_PBE C 08Apr2002                   :
 energy of atom  3       EATOM= -147.1560
 kinetic energy error for atom=    0.0032 (will be added to EATOM!!)
  PAW_PBE N 08Apr2002                   :
 energy of atom  4       EATOM= -264.5486
 kinetic energy error for atom=    0.0061 (will be added to EATOM!!)
 
 
 POSCAR: Autosave
  positions in direct lattice
  velocities in cartesian coordinates
 exchange correlation table for  LEXCH =        8
   RHO(1)=    0.500       N(1)  =     2000
   RHO(2)=  100.500       N(2)  =     4000
 


--------------------------------------------------------------------------------------------------------


 ion  position               nearest neighbor table
   1  0.000  1.000  1.000- 288 1.55 384 1.55 437 1.55 475 1.55
   2  0.000  1.000  0.500- 436 1.55 289 1.55 383 1.55 474 1.55
   3  0.000  0.250  1.000- 290 1.55 431 1.55 469 1.55 386 1.55
   4  0.000  0.250  0.500- 430 1.55 291 1.55 385 1.55 468 1.55
   5  0.000  0.500  1.000- 292 1.55 471 1.55 388 1.55 433 1.55
   6  0.000  0.500  0.500- 470 1.54 432 1.54 293 1.55 387 1.55
   7  1.000  0.750  1.000- 294 1.55 390 1.55 473 1.55 435 1.55
   8  1.000  0.750  0.500- 434 1.55 295 1.55 389 1.55 472 1.55
   9  0.167  0.000  1.000- 296 1.55 445 1.55 392 1.55 437 1.55
  10  0.167  0.000  0.500- 444 1.55 391 1.55 297 1.55 436 1.55
  11  0.167  0.250  1.000- 431 1.55 298 1.55 439 1.55 394 1.55
  12  0.167  0.250  0.500- 299 1.55 438 1.55 430 1.55 393 1.55
  13  0.167  0.500  1.000- 300 1.55 433 1.55 441 1.55 396 1.55
  14  0.166  0.500  0.500- 440 1.54 432 1.54 301 1.55 395 1.55
  15  0.167  0.750  1.000- 302 1.55 398 1.55 435 1.55 443 1.55
  16  0.167  0.750  0.500- 442 1.54 303 1.55 434 1.55 397 1.55
  17  0.333  0.000  1.000- 304 1.55 452 1.55 400 1.55 445 1.55
  18  0.333  0.000  0.500- 305 1.55 399 1.55 451 1.55 444 1.55
  19  0.333  0.250  0.000- 306 1.55 447 1.55 402 1.55 439 1.55
  20  0.333  0.250  0.500- 401 1.54 307 1.55 446 1.55 438 1.55
  21  0.333  0.500  0.000- 308 1.54 448 1.55 441 1.55 404 1.55
  22  0.334  0.500  0.499- 575 1.49 403 1.55 309 1.55 440 1.55
  23  0.333  0.750  1.000- 310 1.55 406 1.55 450 1.55 443 1.55
  24  0.333  0.750  0.500- 449 1.54 405 1.54 311 1.55 442 1.55
  25  0.500  0.000  1.000- 408 1.55 312 1.55 452 1.55 459 1.55
  26  0.500  0.000  0.500- 313 1.55 451 1.55 407 1.55 458 1.55
  27  0.500  0.250  0.000- 410 1.54 314 1.54 447 1.55 454 1.55
  28  0.500  0.251  0.500- 315 1.55 446 1.55 453 1.55 409 1.55
  29  0.500  0.500  0.000- 316 1.54 411 1.55 448 1.55 455 1.55
  30  0.500  0.750  1.000- 317 1.54 413 1.55 450 1.55 457 1.55
  31  0.500  0.750  0.500- 318 1.55 412 1.55 456 1.55 449 1.55
  32  0.667  0.000  1.000- 319 1.55 415 1.55 459 1.55 467 1.55
  33  0.667  1.000  0.500- 320 1.55 414 1.55 458 1.55 466 1.55
  34  0.667  0.250  0.000- 321 1.55 417 1.55 454 1.55 461 1.55
  35  0.667  0.250  0.500- 416 1.54 460 1.54 322 1.55 453 1.55
  36  0.667  0.500  0.000- 323 1.54 455 1.55 419 1.55 463 1.55
  37  0.668  0.499  0.499- 572 1.52 462 1.54 418 1.55 324 1.55
  38  0.667  0.750  0.000- 325 1.55 457 1.55 421 1.55 465 1.55
  39  0.667  0.750  0.500- 456 1.54 326 1.55 420 1.55 464 1.55
  40  0.833  1.000  1.000- 327 1.55 475 1.55 423 1.55 467 1.55
  41  0.833  1.000  0.500- 422 1.55 474 1.55 328 1.55 466 1.55
  42  0.833  0.250  1.000- 329 1.55 469 1.55 461 1.55 425 1.55
  43  0.834  0.250  0.500- 468 1.54 424 1.55 330 1.55 460 1.55
  44  0.833  0.500  0.000- 331 1.55 463 1.55 471 1.55 427 1.55
  45  0.834  0.500  0.500- 462 1.54 470 1.54 332 1.55 426 1.55
  46  0.833  0.750  0.000- 473 1.55 333 1.55 429 1.55 465 1.55
  47  0.833  0.750  0.500- 334 1.55 472 1.55 428 1.55 464 1.55
  48  0.083  0.125  1.000- 335 1.55 392 1.55 431 1.55 384 1.55
  49  0.083  0.125  0.500- 391 1.55 336 1.55 430 1.55 383 1.55
  50  0.083  0.375  1.000- 386 1.55 337 1.55 394 1.55 433 1.55
  51  0.083  0.375  0.500- 385 1.55 338 1.55 393 1.55 432 1.55
  52  0.083  0.625  1.000- 388 1.55 339 1.55 435 1.55 396 1.55
  53  0.083  0.625  0.500- 395 1.54 434 1.55 340 1.55 387 1.55
  54  0.083  0.875  1.000- 341 1.55 437 1.55 398 1.55 390 1.55
  55  0.083  0.875  0.500- 397 1.55 436 1.55 342 1.55 389 1.55
  56  0.250  0.125  1.000- 343 1.55 400 1.55 439 1.55 392 1.55
  57  0.250  0.125  0.500- 438 1.55 344 1.55 399 1.55 391 1.55
  58  0.250  0.375  1.000- 345 1.54 394 1.54 441 1.55 402 1.55
  59  0.250  0.375  0.500- 346 1.55 393 1.55 401 1.55 440 1.55
  60  0.250  0.625  0.000- 347 1.54 404 1.54 443 1.55 396 1.55
  61  0.250  0.625  0.500- 403 1.54 348 1.55 395 1.55 442 1.55
  62  0.250  0.875  1.000- 349 1.55 445 1.55 406 1.55 398 1.55
  63  0.250  0.875  0.500- 405 1.54 444 1.55 350 1.55 397 1.55
  64  0.417  0.125  1.000- 447 1.55 408 1.55 351 1.55 400 1.55
  65  0.417  0.125  0.500- 352 1.55 407 1.55 446 1.55 399 1.55
  66  0.417  0.375  0.000- 353 1.54 448 1.55 410 1.55 402 1.55
  67  0.417  0.377  0.499- 575 1.51 354 1.55 409 1.55 401 1.57
  68  0.417  0.625  0.000- 355 1.54 411 1.55 450 1.55 404 1.55
  69  0.417  0.625  0.499- 574 1.49 403 1.55 356 1.55 449 1.55
  70  0.417  0.875  1.000- 452 1.55 357 1.55 413 1.55 406 1.55
  71  0.417  0.875  0.500- 451 1.55 358 1.55 412 1.55 405 1.55
  72  0.583  0.125  0.000- 454 1.55 359 1.55 408 1.55 415 1.55
  73  0.583  0.125  0.500- 453 1.55 360 1.55 407 1.55 414 1.55
  74  0.583  0.375  0.000- 361 1.54 455 1.55 410 1.55 417 1.55
  75  0.585  0.375  0.499- 572 1.52 416 1.54 409 1.55 362 1.55
  76  0.583  0.625  0.000- 363 1.54 411 1.55 457 1.55 419 1.55
  77  0.581  0.624  0.499- 574 1.51 364 1.55 418 1.55 456 1.57
  78  0.583  0.875  1.000- 459 1.55 365 1.55 413 1.55 421 1.55
  79  0.583  0.875  0.500- 366 1.55 458 1.55 412 1.55 420 1.55
  80  0.750  0.125  1.000- 367 1.55 461 1.55 423 1.55 415 1.55
  81  0.750  0.125  0.500- 460 1.54 422 1.55 368 1.55 414 1.55
  82  0.750  0.375  1.000- 369 1.54 425 1.55 417 1.55 463 1.55
  83  0.751  0.375  0.500- 424 1.54 370 1.55 462 1.55 416 1.55
  84  0.750  0.625  0.000- 419 1.54 371 1.54 465 1.55 427 1.55
  85  0.749  0.625  0.500- 372 1.55 464 1.55 426 1.55 418 1.55
  86  0.750  0.875  1.000- 373 1.55 467 1.55 421 1.55 429 1.55
  87  0.750  0.875  0.500- 420 1.55 374 1.55 466 1.55 428 1.55
  88  0.917  0.125  1.000- 375 1.55 384 1.55 469 1.55 423 1.55
  89  0.917  0.125  0.500- 383 1.55 468 1.55 376 1.55 422 1.55
  90  0.917  0.375  1.000- 386 1.55 377 1.55 425 1.55 471 1.55
  91  0.917  0.375  0.500- 385 1.54 424 1.55 378 1.55 470 1.55
  92  0.917  0.625  0.000- 427 1.55 379 1.55 388 1.55 473 1.55
  93  0.917  0.625  0.500- 380 1.55 472 1.55 387 1.55 426 1.55
  94  0.917  0.875  1.000- 475 1.55 381 1.55 390 1.55 429 1.55
  95  0.917  0.875  0.500- 389 1.55 382 1.55 474 1.55 428 1.55
  96  0.000  0.083  0.333- 524 1.55 383 1.55 476 1.55 564 1.55
  97  0.000  0.083  0.833- 384 1.55 525 1.55 477 1.55 565 1.55
  98  0.000  0.333  0.333- 526 1.55 385 1.55 566 1.55 478 1.55
  99  0.000  0.333  0.833- 386 1.55 527 1.55 567 1.55 479 1.55
 100  1.000  0.583  0.333- 568 1.55 528 1.55 387 1.55 480 1.55
 101  0.000  0.583  0.833- 388 1.55 481 1.55 569 1.55 529 1.55
 102  1.000  0.833  0.333- 482 1.55 530 1.55 389 1.55 570 1.55
 103  1.000  0.833  0.833- 390 1.55 483 1.55 531 1.55 571 1.55
 104  0.167  0.083  0.333- 532 1.55 484 1.55 391 1.55 524 1.55
 105  0.167  0.083  0.833- 392 1.55 533 1.55 525 1.55 485 1.55
 106  0.167  0.333  0.333- 534 1.55 393 1.55 526 1.55 486 1.55
 107  0.167  0.333  0.833- 394 1.55 527 1.55 535 1.55 487 1.55
 108  0.167  0.583  0.333- 536 1.55 528 1.55 395 1.55 488 1.55
 109  0.167  0.583  0.833- 529 1.55 489 1.55 396 1.55 537 1.55
 110  0.167  0.833  0.333- 538 1.55 490 1.55 397 1.55 530 1.55
 111  0.167  0.833  0.833- 398 1.55 491 1.55 531 1.55 539 1.55
 112  0.333  0.083  0.333- 492 1.55 399 1.55 540 1.55 532 1.55
 113  0.333  0.083  0.833- 541 1.55 400 1.55 533 1.55 493 1.55
 114  0.333  0.334  0.333- 542 1.55 534 1.55 494 1.55 401 1.55
 115  0.333  0.333  0.833- 495 1.55 543 1.55 402 1.55 535 1.55
 116  0.333  0.583  0.333- 403 1.54 544 1.54 536 1.55 496 1.55
 117  0.333  0.583  0.834- 545 1.54 404 1.54 497 1.55 537 1.55
 118  0.333  0.833  0.333- 498 1.55 538 1.55 546 1.55 405 1.55
 119  0.333  0.833  0.833- 406 1.55 547 1.55 539 1.55 499 1.55
 120  0.500  0.083  0.333- 500 1.55 407 1.55 540 1.55 548 1.55
 121  0.500  0.083  0.833- 408 1.55 541 1.55 549 1.55 501 1.55
 122  0.500  0.334  0.333- 502 1.54 409 1.54 542 1.55 550 1.55
 123  0.500  0.333  0.834- 503 1.54 410 1.54 543 1.55 551 1.55
 124  0.499  0.584  0.334- 574 1.49 544 1.55 504 1.55 552 1.56
 125  0.500  0.583  0.834- 411 1.54 505 1.55 545 1.55 553 1.55
 126  0.500  0.833  0.333- 412 1.55 506 1.55 546 1.55 554 1.55
 127  0.500  0.833  0.833- 413 1.55 507 1.55 555 1.55 547 1.55
 128  0.667  0.083  0.333- 508 1.55 414 1.55 548 1.55 556 1.55
 129  0.667  0.083  0.833- 415 1.55 549 1.55 509 1.55 557 1.55
 130  0.667  0.333  0.333- 558 1.54 550 1.55 510 1.55 416 1.55
 131  0.667  0.333  0.833- 511 1.55 417 1.55 551 1.55 559 1.55
 132  0.666  0.583  0.334- 552 1.54 418 1.54 512 1.55 560 1.55
 133  0.667  0.583  0.834- 553 1.54 419 1.54 513 1.55 561 1.55
 134  0.667  0.833  0.333- 554 1.55 514 1.55 562 1.55 420 1.55
 135  0.667  0.833  0.833- 421 1.55 555 1.55 563 1.55 515 1.55
 136  0.833  0.083  0.333- 564 1.55 516 1.55 422 1.55 556 1.55
 137  0.833  0.083  0.833- 423 1.55 517 1.55 565 1.55 557 1.55
 138  0.834  0.333  0.333- 566 1.55 558 1.55 424 1.55 518 1.55
 139  0.833  0.333  0.833- 425 1.55 567 1.55 519 1.55 559 1.55
 140  0.833  0.583  0.333- 560 1.55 426 1.55 520 1.55 568 1.55
 141  0.833  0.583  0.833- 521 1.55 561 1.55 569 1.55 427 1.55
 142  0.833  0.833  0.333- 428 1.55 570 1.55 562 1.55 522 1.55
 143  0.833  0.833  0.833- 429 1.55 571 1.55 523 1.55 563 1.55
 144  0.083  0.208  0.333- 484 1.55 430 1.55 526 1.55 476 1.55
 145  0.083  0.208  0.833- 431 1.55 485 1.55 477 1.55 527 1.55
 146  0.083  0.458  0.333- 478 1.55 486 1.55 528 1.55 432 1.55
 147  0.083  0.458  0.833- 433 1.55 479 1.55 529 1.55 487 1.55
 148  0.083  0.708  0.333- 488 1.55 434 1.55 530 1.55 480 1.55
 149  0.083  0.708  0.833- 435 1.55 531 1.55 481 1.55 489 1.55
 150  0.083  0.958  0.333- 490 1.55 524 1.55 436 1.55 482 1.55
 151  0.083  0.958  0.833- 437 1.55 491 1.55 525 1.55 483 1.55
 152  0.250  0.208  0.333- 492 1.55 484 1.55 438 1.55 534 1.55
 153  0.250  0.208  0.833- 439 1.55 493 1.55 485 1.55 535 1.55
 154  0.250  0.458  0.333- 486 1.55 536 1.55 440 1.55 494 1.55
 155  0.250  0.458  0.833- 441 1.55 495 1.55 537 1.55 487 1.55
 156  0.250  0.708  0.333- 496 1.55 442 1.55 538 1.55 488 1.55
 157  0.250  0.708  0.833- 539 1.55 489 1.55 443 1.55 497 1.55
 158  0.250  0.958  0.333- 532 1.55 498 1.55 444 1.55 490 1.55
 159  0.250  0.958  0.833- 445 1.55 499 1.55 491 1.55 533 1.55
 160  0.417  0.209  0.333- 446 1.55 542 1.55 492 1.55 500 1.55
 161  0.417  0.208  0.833- 493 1.55 501 1.55 447 1.55 543 1.55
 162  0.416  0.459  0.334- 575 1.49 544 1.55 494 1.55 502 1.56
 163  0.417  0.458  0.834- 448 1.54 495 1.55 545 1.55 503 1.55
 164  0.416  0.708  0.333- 546 1.55 496 1.55 449 1.55 504 1.55
 165  0.417  0.708  0.833- 450 1.55 497 1.55 505 1.55 547 1.55
 166  0.417  0.958  0.333- 540 1.55 451 1.55 498 1.55 506 1.55
 167  0.417  0.958  0.833- 452 1.55 499 1.55 541 1.55 507 1.55
 168  0.583  0.208  0.333- 550 1.55 453 1.55 500 1.55 508 1.55
 169  0.583  0.208  0.833- 551 1.55 509 1.55 501 1.55 454 1.55
 170  0.585  0.458  0.333- 572 1.52 510 1.54 502 1.55 552 1.55
 171  0.584  0.458  0.834- 455 1.54 511 1.55 503 1.55 553 1.55
 172  0.583  0.708  0.333- 512 1.55 554 1.55 456 1.55 504 1.55
 173  0.583  0.708  0.833- 513 1.55 505 1.55 457 1.55 555 1.55
 174  0.583  0.958  0.333- 458 1.55 548 1.55 514 1.55 506 1.55
 175  0.583  0.958  0.833- 459 1.55 515 1.55 549 1.55 507 1.55
 176  0.750  0.208  0.333- 516 1.55 558 1.55 508 1.55 460 1.55
 177  0.750  0.208  0.833- 461 1.55 559 1.55 517 1.55 509 1.55
 178  0.750  0.458  0.333- 518 1.54 560 1.55 510 1.55 462 1.55
 179  0.750  0.458  0.833- 511 1.55 463 1.55 561 1.55 519 1.55
 180  0.750  0.708  0.333- 464 1.55 512 1.55 520 1.55 562 1.55
 181  0.750  0.708  0.833- 563 1.55 521 1.55 465 1.55 513 1.55
 182  0.750  0.958  0.333- 466 1.55 556 1.55 522 1.55 514 1.55
 183  0.750  0.958  0.833- 467 1.55 523 1.55 557 1.55 515 1.55
 184  0.917  0.208  0.333- 476 1.55 516 1.55 468 1.55 566 1.55
 185  0.917  0.208  0.833- 469 1.55 477 1.55 517 1.55 567 1.55
 186  0.917  0.458  0.333- 478 1.55 518 1.55 568 1.55 470 1.55
 187  0.917  0.458  0.833- 471 1.55 519 1.55 569 1.55 479 1.55
 188  0.917  0.708  0.333- 520 1.55 472 1.55 480 1.55 570 1.55
 189  0.917  0.708  0.833- 473 1.55 571 1.55 481 1.55 521 1.55
 190  0.917  0.958  0.333- 564 1.55 482 1.55 474 1.55 522 1.55
 191  0.917  0.958  0.833- 475 1.55 565 1.55 483 1.55 523 1.55
 192  0.000  0.167  0.167- 335 1.55 375 1.55 476 1.55 290 1.55
 193  0.000  0.167  0.667- 477 1.55 336 1.55 291 1.55 376 1.55
 194  0.000  0.417  0.167- 377 1.55 337 1.55 478 1.55 292 1.55
 195  0.000  0.417  0.667- 479 1.55 378 1.55 293 1.55 338 1.55
 196  1.000  0.667  0.167- 379 1.55 339 1.55 480 1.55 294 1.55
 197  1.000  0.667  0.667- 481 1.55 295 1.55 340 1.55 380 1.55
 198  1.000  0.917  0.167- 341 1.55 288 1.55 482 1.55 381 1.55
 199  1.000  0.917  0.667- 483 1.55 342 1.55 289 1.55 382 1.55
 200  0.167  0.167  0.167- 343 1.55 298 1.55 484 1.55 335 1.55
 201  0.167  0.167  0.667- 344 1.55 485 1.55 299 1.55 336 1.55
 202  0.167  0.417  0.167- 337 1.55 486 1.55 300 1.55 345 1.55
 203  0.167  0.417  0.667- 301 1.55 346 1.55 487 1.55 338 1.55
 204  0.167  0.667  0.167- 347 1.55 488 1.55 302 1.55 339 1.55
 205  0.167  0.667  0.667- 489 1.55 303 1.55 340 1.55 348 1.55
 206  0.167  0.917  0.167- 296 1.55 349 1.55 490 1.55 341 1.55
 207  0.167  0.917  0.667- 491 1.55 350 1.55 342 1.55 297 1.55
 208  0.333  0.167  0.167- 306 1.55 492 1.55 351 1.55 343 1.55
 209  0.334  0.167  0.667- 493 1.55 352 1.55 344 1.55 307 1.55
 210  0.333  0.417  0.166- 494 1.54 345 1.54 308 1.55 353 1.55
 211  0.334  0.417  0.666- 309 1.54 354 1.54 346 1.55 495 1.55
 212  0.333  0.667  0.167- 496 1.55 310 1.55 347 1.55 355 1.55
 213  0.334  0.666  0.666- 348 1.54 497 1.55 311 1.55 356 1.56
 214  0.333  0.917  0.167- 304 1.55 498 1.55 357 1.55 349 1.55
 215  0.333  0.917  0.667- 499 1.55 358 1.55 350 1.55 305 1.55
 216  0.500  0.167  0.167- 314 1.55 500 1.55 351 1.55 359 1.55
 217  0.500  0.167  0.667- 501 1.55 352 1.55 360 1.55 315 1.55
 218  0.500  0.417  0.167- 316 1.55 502 1.55 353 1.55 361 1.55
 219  0.500  0.418  0.669- 576 1.48 503 1.54 354 1.56 362 1.56
 220  0.500  0.667  0.166- 504 1.54 317 1.54 355 1.55 363 1.55
 221  0.500  0.666  0.666- 356 1.54 364 1.54 318 1.55 505 1.55
 222  0.500  0.917  0.167- 312 1.55 506 1.55 357 1.55 365 1.55
 223  0.500  0.917  0.667- 507 1.55 358 1.55 366 1.55 313 1.55
 224  0.667  0.167  0.167- 508 1.55 321 1.55 367 1.55 359 1.55
 225  0.667  0.167  0.667- 509 1.55 360 1.55 322 1.55 368 1.55
 226  0.667  0.416  0.166- 510 1.54 369 1.54 361 1.55 323 1.55
 227  0.667  0.417  0.667- 324 1.54 362 1.54 370 1.55 511 1.55
 228  0.667  0.667  0.167- 512 1.55 363 1.55 371 1.55 325 1.55
 229  0.666  0.666  0.666- 372 1.54 513 1.55 326 1.55 364 1.56
 230  0.667  0.917  0.167- 319 1.55 514 1.55 365 1.55 373 1.55
 231  0.667  0.917  0.667- 515 1.55 374 1.55 366 1.55 320 1.55
 232  0.833  0.167  0.167- 375 1.55 516 1.55 329 1.55 367 1.55
 233  0.833  0.167  0.667- 517 1.55 330 1.55 368 1.55 376 1.55
 234  0.834  0.417  0.167- 377 1.55 518 1.55 331 1.55 369 1.55
 235  0.833  0.417  0.667- 370 1.55 332 1.55 519 1.55 378 1.55
 236  0.833  0.667  0.167- 371 1.55 520 1.55 333 1.55 379 1.55
 237  0.833  0.666  0.667- 521 1.55 334 1.55 380 1.55 372 1.55
 238  0.833  0.917  0.167- 327 1.55 522 1.55 373 1.55 381 1.55
 239  0.833  0.917  0.667- 523 1.55 382 1.55 328 1.55 374 1.55
 240  0.083  0.042  0.167- 296 1.55 335 1.55 524 1.55 288 1.55
 241  0.083  0.042  0.667- 525 1.55 297 1.55 336 1.55 289 1.55
 242  0.083  0.292  0.167- 298 1.55 526 1.55 290 1.55 337 1.55
 243  0.083  0.292  0.667- 527 1.55 299 1.55 338 1.55 291 1.55
 244  0.083  0.542  0.167- 300 1.55 292 1.55 528 1.55 339 1.55
 245  0.084  0.542  0.667- 529 1.55 340 1.55 301 1.55 293 1.55
 246  0.083  0.792  0.167- 302 1.55 341 1.55 530 1.55 294 1.55
 247  0.083  0.792  0.667- 531 1.55 342 1.55 303 1.55 295 1.55
 248  0.250  0.042  0.167- 343 1.55 304 1.55 532 1.55 296 1.55
 249  0.250  0.042  0.667- 533 1.55 305 1.55 297 1.55 344 1.55
 250  0.250  0.292  0.167- 298 1.55 306 1.55 534 1.55 345 1.55
 251  0.250  0.292  0.667- 307 1.55 346 1.55 535 1.55 299 1.55
 252  0.250  0.542  0.167- 536 1.55 300 1.55 308 1.55 347 1.55
 253  0.251  0.542  0.666- 348 1.54 537 1.55 301 1.55 309 1.56
 254  0.250  0.792  0.167- 349 1.55 538 1.55 310 1.55 302 1.55
 255  0.250  0.791  0.667- 539 1.55 303 1.55 311 1.55 350 1.55
 256  0.417  0.042  0.167- 351 1.55 304 1.55 540 1.55 312 1.55
 257  0.417  0.042  0.667- 541 1.55 305 1.55 313 1.55 352 1.55
 258  0.417  0.292  0.167- 542 1.55 353 1.55 306 1.55 314 1.55
 259  0.417  0.293  0.666- 315 1.54 543 1.55 307 1.55 354 1.56
 260  0.417  0.542  0.167- 544 1.54 308 1.55 316 1.55 355 1.55
 261  0.419  0.541  0.668- 576 1.48 545 1.54 309 1.56 356 1.56
 262  0.417  0.792  0.167- 357 1.55 546 1.55 310 1.55 317 1.55
 263  0.417  0.792  0.667- 311 1.55 318 1.55 547 1.55 358 1.55
 264  0.583  0.042  0.167- 359 1.55 548 1.55 319 1.55 312 1.55
 265  0.583  0.042  0.667- 549 1.55 313 1.55 320 1.55 360 1.55
 266  0.583  0.292  0.167- 550 1.55 361 1.55 321 1.55 314 1.55
 267  0.583  0.292  0.667- 315 1.55 551 1.55 322 1.55 362 1.55
 268  0.583  0.542  0.167- 316 1.55 552 1.55 363 1.55 323 1.55
 269  0.582  0.541  0.669- 576 1.48 553 1.54 364 1.56 324 1.56
 270  0.583  0.792  0.167- 365 1.55 325 1.55 554 1.55 317 1.55
 271  0.583  0.791  0.667- 326 1.55 318 1.55 555 1.55 366 1.55
 272  0.750  0.042  0.167- 367 1.55 556 1.55 327 1.55 319 1.55
 273  0.750  0.042  0.667- 557 1.55 320 1.55 368 1.55 328 1.55
 274  0.750  0.292  0.167- 329 1.55 558 1.55 321 1.55 369 1.55
 275  0.750  0.292  0.667- 370 1.55 322 1.55 559 1.55 330 1.55
 276  0.750  0.542  0.167- 560 1.55 323 1.55 371 1.55 331 1.55
 277  0.749  0.542  0.667- 372 1.54 561 1.55 332 1.55 324 1.55
 278  0.750  0.792  0.167- 325 1.55 562 1.55 333 1.55 373 1.55
 279  0.750  0.791  0.667- 563 1.55 334 1.55 374 1.55 326 1.55
 280  0.917  0.042  0.167- 288 1.55 375 1.55 564 1.55 327 1.55
 281  0.917  0.042  0.667- 565 1.55 376 1.55 289 1.55 328 1.55
 282  0.917  0.292  0.167- 290 1.55 329 1.55 566 1.55 377 1.55
 283  0.917  0.292  0.667- 567 1.55 291 1.55 330 1.55 378 1.55
 284  0.917  0.542  0.167- 331 1.55 568 1.55 292 1.55 379 1.55
 285  0.917  0.542  0.667- 569 1.55 380 1.55 332 1.55 293 1.55
 286  0.917  0.792  0.167- 333 1.55 381 1.55 294 1.55 570 1.55
 287  0.917  0.792  0.667- 571 1.55 382 1.55 295 1.55 334 1.55
 288  0.000  1.000  0.125-   1 1.55 198 1.55 280 1.55 240 1.55
 289  0.000  1.000  0.625-   2 1.55 281 1.55 199 1.55 241 1.55
 290  0.000  0.250  0.125- 282 1.55   3 1.55 242 1.55 192 1.55
 291  0.000  0.250  0.625-   4 1.55 283 1.55 193 1.55 243 1.55
 292  0.000  0.500  0.125-   5 1.55 244 1.55 284 1.55 194 1.55
 293  0.000  0.500  0.625- 195 1.55   6 1.55 285 1.55 245 1.55
 294  1.000  0.750  0.125-   7 1.55 286 1.55 196 1.55 246 1.55
 295  1.000  0.750  0.625-   8 1.55 197 1.55 287 1.55 247 1.55
 296  0.167  0.000  0.125- 240 1.55   9 1.55 206 1.55 248 1.55
 297  0.167  0.000  0.625-  10 1.55 241 1.55 249 1.55 207 1.55
 298  0.167  0.250  0.125- 242 1.55 250 1.55  11 1.55 200 1.55
 299  0.167  0.250  0.625-  12 1.55 243 1.55 201 1.55 251 1.55
 300  0.167  0.500  0.125-  13 1.55 244 1.55 252 1.55 202 1.55
 301  0.167  0.500  0.625- 203 1.55  14 1.55 245 1.55 253 1.55
 302  0.167  0.750  0.125-  15 1.55 246 1.55 204 1.55 254 1.55
 303  0.167  0.750  0.625-  16 1.55 255 1.55 205 1.55 247 1.55
 304  0.333  0.000  0.125- 214 1.55  17 1.55 248 1.55 256 1.55
 305  0.333  0.000  0.625-  18 1.55 249 1.55 257 1.55 215 1.55
 306  0.333  0.250  0.125-  19 1.55 208 1.55 250 1.55 258 1.55
 307  0.334  0.250  0.625- 251 1.55  20 1.55 209 1.55 259 1.55
 308  0.333  0.500  0.125-  21 1.54 252 1.55 210 1.55 260 1.55
 309  0.335  0.500  0.624- 211 1.54  22 1.55 253 1.56 261 1.56
 310  0.333  0.750  0.125-  23 1.55 212 1.55 254 1.55 262 1.55
 311  0.334  0.750  0.625- 263 1.55  24 1.55 255 1.55 213 1.55
 312  0.500  0.000  0.125- 222 1.55  25 1.55 264 1.55 256 1.55
 313  0.500  0.000  0.625-  26 1.55 265 1.55 257 1.55 223 1.55
 314  0.500  0.250  0.125-  27 1.54 216 1.55 266 1.55 258 1.55
 315  0.500  0.250  0.625- 259 1.54 267 1.55  28 1.55 217 1.55
 316  0.500  0.500  0.125-  29 1.54 218 1.55 268 1.55 260 1.55
 317  0.500  0.750  0.125- 220 1.54  30 1.54 270 1.55 262 1.55
 318  0.500  0.750  0.625-  31 1.55 271 1.55 263 1.55 221 1.55
 319  0.667  1.000  0.125-  32 1.55 230 1.55 264 1.55 272 1.55
 320  0.667  1.000  0.625-  33 1.55 273 1.55 265 1.55 231 1.55
 321  0.667  0.250  0.125-  34 1.55 224 1.55 274 1.55 266 1.55
 322  0.667  0.250  0.625- 275 1.55  35 1.55 225 1.55 267 1.55
 323  0.667  0.500  0.125-  36 1.54 276 1.55 226 1.55 268 1.55
 324  0.666  0.499  0.625- 227 1.54  37 1.55 277 1.55 269 1.56
 325  0.667  0.750  0.125-  38 1.55 278 1.55 270 1.55 228 1.55
 326  0.666  0.750  0.625-  39 1.55 271 1.55 279 1.55 229 1.55
 327  0.833  1.000  0.125-  40 1.55 238 1.55 280 1.55 272 1.55
 328  0.833  1.000  0.625-  41 1.55 281 1.55 273 1.55 239 1.55
 329  0.833  0.250  0.125- 274 1.55  42 1.55 282 1.55 232 1.55
 330  0.833  0.250  0.625- 233 1.55  43 1.55 283 1.55 275 1.55
 331  0.833  0.500  0.125-  44 1.55 284 1.55 234 1.55 276 1.55
 332  0.833  0.500  0.625- 235 1.55  45 1.55 285 1.55 277 1.55
 333  0.833  0.750  0.125- 286 1.55  46 1.55 278 1.55 236 1.55
 334  0.833  0.750  0.625-  47 1.55 279 1.55 237 1.55 287 1.55
 335  0.083  0.125  0.125- 192 1.55  48 1.55 240 1.55 200 1.55
 336  0.083  0.125  0.625-  49 1.55 193 1.55 241 1.55 201 1.55
 337  0.083  0.375  0.125- 202 1.55 194 1.55  50 1.55 242 1.55
 338  0.083  0.375  0.625-  51 1.55 195 1.55 243 1.55 203 1.55
 339  0.083  0.625  0.125- 196 1.55  52 1.55 204 1.55 244 1.55
 340  0.083  0.625  0.625- 245 1.55  53 1.55 205 1.55 197 1.55
 341  0.083  0.875  0.125- 246 1.55 198 1.55  54 1.55 206 1.55
 342  0.083  0.875  0.625-  55 1.55 199 1.55 247 1.55 207 1.55
 343  0.250  0.125  0.125- 248 1.55 200 1.55  56 1.55 208 1.55
 344  0.250  0.125  0.625-  57 1.55 201 1.55 249 1.55 209 1.55
 345  0.250  0.375  0.125- 210 1.54  58 1.54 202 1.55 250 1.55
 346  0.250  0.375  0.625-  59 1.55 203 1.55 251 1.55 211 1.55
 347  0.250  0.625  0.125-  60 1.54 204 1.55 252 1.55 212 1.55
 348  0.250  0.625  0.625- 253 1.54 213 1.54  61 1.55 205 1.55
 349  0.250  0.875  0.125-  62 1.55 254 1.55 206 1.55 214 1.55
 350  0.250  0.875  0.625-  63 1.55 215 1.55 207 1.55 255 1.55
 351  0.417  0.125  0.125- 256 1.55  64 1.55 208 1.55 216 1.55
 352  0.417  0.125  0.625-  65 1.55 209 1.55 217 1.55 257 1.55
 353  0.417  0.375  0.125-  66 1.54 258 1.55 210 1.55 218 1.55
 354  0.417  0.377  0.625- 211 1.54  67 1.55 219 1.56 259 1.56
 355  0.417  0.625  0.125-  68 1.54 212 1.55 220 1.55 260 1.55
 356  0.418  0.624  0.624- 221 1.54  69 1.55 213 1.56 261 1.56
 357  0.417  0.875  0.125- 262 1.55  70 1.55 222 1.55 214 1.55
 358  0.417  0.875  0.625-  71 1.55 223 1.55 215 1.55 263 1.55
 359  0.583  0.125  0.125- 264 1.55  72 1.55 224 1.55 216 1.55
 360  0.583  0.125  0.625-  73 1.55 225 1.55 217 1.55 265 1.55
 361  0.583  0.375  0.125-  74 1.54 266 1.55 226 1.55 218 1.55
 362  0.583  0.376  0.625- 227 1.54  75 1.55 267 1.55 219 1.56
 363  0.583  0.625  0.125-  76 1.54 228 1.55 220 1.55 268 1.55
 364  0.582  0.624  0.625- 221 1.54  77 1.55 269 1.56 229 1.56
 365  0.583  0.875  0.125- 270 1.55  78 1.55 230 1.55 222 1.55
 366  0.583  0.875  0.625-  79 1.55 231 1.55 223 1.55 271 1.55
 367  0.750  0.125  0.125-  80 1.55 272 1.55 224 1.55 232 1.55
 368  0.750  0.125  0.625-  81 1.55 233 1.55 273 1.55 225 1.55
 369  0.750  0.375  0.125- 226 1.54  82 1.54 234 1.55 274 1.55
 370  0.750  0.375  0.625- 275 1.55 235 1.55  83 1.55 227 1.55
 371  0.750  0.625  0.125-  84 1.54 236 1.55 276 1.55 228 1.55
 372  0.750  0.625  0.625- 229 1.54 277 1.54  85 1.55 237 1.55
 373  0.750  0.875  0.125-  86 1.55 238 1.55 230 1.55 278 1.55
 374  0.750  0.875  0.625-  87 1.55 231 1.55 239 1.55 279 1.55
 375  0.917  0.125  0.125- 232 1.55  88 1.55 280 1.55 192 1.55
 376  0.917  0.125  0.625-  89 1.55 281 1.55 233 1.55 193 1.55
 377  0.917  0.375  0.125- 234 1.55 194 1.55  90 1.55 282 1.55
 378  0.917  0.375  0.625-  91 1.55 195 1.55 283 1.55 235 1.55
 379  0.917  0.625  0.125- 196 1.55  92 1.55 284 1.55 236 1.55
 380  0.917  0.625  0.625- 285 1.55  93 1.55 237 1.55 197 1.55
 381  0.917  0.875  0.125- 286 1.55  94 1.55 198 1.55 238 1.55
 382  0.917  0.875  0.625-  95 1.55 287 1.55 239 1.55 199 1.55
 383  0.000  0.083  0.458-  89 1.55   2 1.55  96 1.55  49 1.55
 384  0.000  0.083  0.958-  97 1.55  88 1.55   1 1.55  48 1.55
 385  0.000  0.333  0.458-  91 1.54  51 1.55   4 1.55  98 1.55
 386  0.000  0.333  0.958-  90 1.55  50 1.55  99 1.55   3 1.55
 387  1.000  0.583  0.458- 100 1.55  53 1.55  93 1.55   6 1.55
 388  0.000  0.583  0.958- 101 1.55  52 1.55  92 1.55   5 1.55
 389  1.000  0.833  0.458-  95 1.55   8 1.55 102 1.55  55 1.55
 390  1.000  0.833  0.958- 103 1.55   7 1.55  94 1.55  54 1.55
 391  0.167  0.083  0.458-  10 1.55  49 1.55  57 1.55 104 1.55
 392  0.167  0.083  0.958- 105 1.55  48 1.55   9 1.55  56 1.55
 393  0.167  0.333  0.458-  51 1.55 106 1.55  12 1.55  59 1.55
 394  0.167  0.333  0.958-  58 1.54 107 1.55  50 1.55  11 1.55
 395  0.167  0.583  0.458-  53 1.54 108 1.55  14 1.55  61 1.55
 396  0.167  0.583  0.958-  13 1.55  60 1.55  52 1.55 109 1.55
 397  0.167  0.833  0.458-  55 1.55 110 1.55  16 1.55  63 1.55
 398  0.167  0.833  0.958- 111 1.55  15 1.55  54 1.55  62 1.55
 399  0.333  0.083  0.458- 112 1.55  18 1.55  57 1.55  65 1.55
 400  0.333  0.083  0.958- 113 1.55  17 1.55  56 1.55  64 1.55
 401  0.333  0.333  0.458-  20 1.54  59 1.55 114 1.55  67 1.57
 402  0.333  0.333  0.958- 115 1.55  19 1.55  58 1.55  66 1.55
 403  0.333  0.583  0.458-  61 1.54 116 1.54  22 1.55  69 1.55
 404  0.333  0.583  0.959- 117 1.54  60 1.54  21 1.55  68 1.55
 405  0.333  0.834  0.458-  24 1.54  63 1.54 118 1.55  71 1.55
 406  0.333  0.833  0.958- 119 1.55  23 1.55  62 1.55  70 1.55
 407  0.500  0.083  0.458- 120 1.55  73 1.55  26 1.55  65 1.55
 408  0.500  0.083  0.958-  25 1.55 121 1.55  64 1.55  72 1.55
 409  0.500  0.334  0.458- 122 1.54  75 1.55  28 1.55  67 1.55
 410  0.500  0.333  0.959- 123 1.54  27 1.54  74 1.55  66 1.55
 411  0.500  0.583  0.959- 125 1.54  76 1.55  68 1.55  29 1.55
 412  0.500  0.833  0.458-  79 1.55 126 1.55  31 1.55  71 1.55
 413  0.500  0.833  0.958-  30 1.55 127 1.55  78 1.55  70 1.55
 414  0.667  0.083  0.458-  33 1.55 128 1.55  81 1.55  73 1.55
 415  0.667  0.083  0.958- 129 1.55  32 1.55  80 1.55  72 1.55
 416  0.667  0.332  0.458-  35 1.54  75 1.54  83 1.55 130 1.55
 417  0.667  0.333  0.958- 131 1.55  34 1.55  82 1.55  74 1.55
 418  0.666  0.583  0.458- 132 1.54  37 1.55  85 1.55  77 1.55
 419  0.667  0.583  0.959- 133 1.54  84 1.54  36 1.55  76 1.55
 420  0.667  0.833  0.458-  87 1.55  39 1.55 134 1.55  79 1.55
 421  0.667  0.833  0.958- 135 1.55  86 1.55  38 1.55  78 1.55
 422  0.833  0.083  0.458-  41 1.55  81 1.55 136 1.55  89 1.55
 423  0.833  0.083  0.958- 137 1.55  40 1.55  80 1.55  88 1.55
 424  0.834  0.333  0.458-  83 1.54  91 1.55  43 1.55 138 1.55
 425  0.833  0.333  0.958- 139 1.55  82 1.55  90 1.55  42 1.55
 426  0.833  0.583  0.458- 140 1.55  93 1.55  45 1.55  85 1.55
 427  0.833  0.583  0.958-  92 1.55  44 1.55 141 1.55  84 1.55
 428  0.833  0.833  0.458- 142 1.55  87 1.55  95 1.55  47 1.55
 429  0.833  0.833  0.958- 143 1.55  46 1.55  86 1.55  94 1.55
 430  0.083  0.208  0.458-   4 1.55  49 1.55  12 1.55 144 1.55
 431  0.083  0.208  0.958-  11 1.55 145 1.55   3 1.55  48 1.55
 432  0.083  0.458  0.458-  14 1.54   6 1.54  51 1.55 146 1.55
 433  0.083  0.458  0.958- 147 1.55  13 1.55   5 1.55  50 1.55
 434  0.083  0.708  0.458-   8 1.55  53 1.55 148 1.55  16 1.55
 435  0.083  0.708  0.958- 149 1.55  52 1.55  15 1.55   7 1.55
 436  0.083  0.958  0.458-   2 1.55  55 1.55 150 1.55  10 1.55
 437  0.083  0.958  0.958- 151 1.55  54 1.55   9 1.55   1 1.55
 438  0.250  0.208  0.458-  57 1.55  20 1.55  12 1.55 152 1.55
 439  0.250  0.208  0.958- 153 1.55  11 1.55  56 1.55  19 1.55
 440  0.249  0.459  0.458-  14 1.54  59 1.55 154 1.55  22 1.55
 441  0.250  0.458  0.958- 155 1.55  13 1.55  58 1.55  21 1.55
 442  0.250  0.708  0.458-  16 1.54 156 1.55  24 1.55  61 1.55
 443  0.250  0.708  0.958-  60 1.55  15 1.55  23 1.55 157 1.55
 444  0.250  0.958  0.458-  63 1.55  10 1.55 158 1.55  18 1.55
 445  0.250  0.958  0.958- 159 1.55  62 1.55   9 1.55  17 1.55
 446  0.417  0.209  0.458- 160 1.55  20 1.55  65 1.55  28 1.55
 447  0.417  0.208  0.958-  19 1.55  64 1.55  27 1.55 161 1.55
 448  0.417  0.458  0.959- 163 1.54  66 1.55  21 1.55  29 1.55
 449  0.416  0.709  0.458-  24 1.54  31 1.55 164 1.55  69 1.55
 450  0.417  0.708  0.958- 165 1.55  23 1.55  68 1.55  30 1.55
 451  0.417  0.958  0.458-  71 1.55 166 1.55  18 1.55  26 1.55
 452  0.417  0.958  0.958-  70 1.55 167 1.55  17 1.55  25 1.55
 453  0.583  0.208  0.458- 168 1.55  73 1.55  35 1.55  28 1.55
 454  0.583  0.208  0.958-  72 1.55  34 1.55 169 1.55  27 1.55
 455  0.583  0.458  0.959- 171 1.54  36 1.55  74 1.55  29 1.55
 456  0.583  0.708  0.458-  39 1.54 172 1.55  31 1.55  77 1.57
 457  0.583  0.708  0.958-  38 1.55 173 1.55  30 1.55  76 1.55
 458  0.583  0.958  0.458-  33 1.55  79 1.55 174 1.55  26 1.55
 459  0.583  0.958  0.958-  78 1.55 175 1.55  32 1.55  25 1.55
 460  0.750  0.208  0.458-  35 1.54  81 1.54 176 1.55  43 1.55
 461  0.750  0.208  0.958- 177 1.55  80 1.55  42 1.55  34 1.55
 462  0.751  0.458  0.459-  45 1.54  37 1.54  83 1.55 178 1.55
 463  0.750  0.458  0.958- 179 1.55  44 1.55  82 1.55  36 1.55
 464  0.750  0.708  0.458- 180 1.55  39 1.55  47 1.55  85 1.55
 465  0.750  0.708  0.958-  46 1.55  38 1.55  84 1.55 181 1.55
 466  0.750  0.958  0.458-  87 1.55  41 1.55 182 1.55  33 1.55
 467  0.750  0.958  0.958- 183 1.55  86 1.55  32 1.55  40 1.55
 468  0.917  0.208  0.458-  43 1.54  89 1.55   4 1.55 184 1.55
 469  0.917  0.208  0.958-  42 1.55 185 1.55  88 1.55   3 1.55
 470  0.917  0.458  0.458-  45 1.54   6 1.54  91 1.55 186 1.55
 471  0.917  0.458  0.958- 187 1.55   5 1.55  44 1.55  90 1.55
 472  0.917  0.708  0.458- 188 1.55  47 1.55  93 1.55   8 1.55
 473  0.917  0.708  0.958-  46 1.55 189 1.55  92 1.55   7 1.55
 474  0.917  0.958  0.458-  41 1.55  95 1.55 190 1.55   2 1.55
 475  0.917  0.958  0.958- 191 1.55  94 1.55  40 1.55   1 1.55
 476  0.000  0.167  0.292- 184 1.55 192 1.55  96 1.55 144 1.55
 477  0.000  0.167  0.792- 193 1.55 185 1.55  97 1.55 145 1.55
 478  0.000  0.417  0.292- 186 1.55 146 1.55 194 1.55  98 1.55
 479  0.000  0.417  0.792- 195 1.55 147 1.55 187 1.55  99 1.55
 480  1.000  0.667  0.292- 196 1.55 188 1.55 148 1.55 100 1.55
 481  1.000  0.667  0.792- 197 1.55 101 1.55 189 1.55 149 1.55
 482  1.000  0.917  0.292- 102 1.55 190 1.55 198 1.55 150 1.55
 483  1.000  0.917  0.792- 199 1.55 103 1.55 191 1.55 151 1.55
 484  0.167  0.167  0.292- 144 1.55 104 1.55 200 1.55 152 1.55
 485  0.167  0.167  0.792- 201 1.55 145 1.55 153 1.55 105 1.55
 486  0.167  0.417  0.292- 154 1.55 146 1.55 202 1.55 106 1.55
 487  0.167  0.417  0.792- 203 1.55 155 1.55 147 1.55 107 1.55
 488  0.167  0.667  0.292- 148 1.55 204 1.55 108 1.55 156 1.55
 489  0.167  0.667  0.792- 205 1.55 109 1.55 157 1.55 149 1.55
 490  0.167  0.917  0.292- 150 1.55 110 1.55 206 1.55 158 1.55
 491  0.167  0.917  0.792- 207 1.55 151 1.55 111 1.55 159 1.55
 492  0.333  0.167  0.292- 112 1.55 152 1.55 208 1.55 160 1.55
 493  0.333  0.167  0.792- 209 1.55 161 1.55 153 1.55 113 1.55
 494  0.333  0.417  0.290- 210 1.54 114 1.55 154 1.55 162 1.55
 495  0.333  0.417  0.792- 115 1.55 155 1.55 163 1.55 211 1.55
 496  0.333  0.667  0.292- 212 1.55 156 1.55 164 1.55 116 1.55
 497  0.333  0.667  0.792- 165 1.55 117 1.55 157 1.55 213 1.55
 498  0.333  0.917  0.292- 118 1.55 158 1.55 214 1.55 166 1.55
 499  0.333  0.917  0.792- 215 1.55 167 1.55 159 1.55 119 1.55
 500  0.500  0.167  0.292- 216 1.55 120 1.55 168 1.55 160 1.55
 501  0.500  0.167  0.792- 217 1.55 169 1.55 161 1.55 121 1.55
 502  0.500  0.417  0.292- 122 1.54 218 1.55 170 1.55 162 1.56
 503  0.500  0.416  0.793- 123 1.54 219 1.54 171 1.55 163 1.55
 504  0.500  0.667  0.290- 220 1.54 172 1.55 164 1.55 124 1.55
 505  0.500  0.667  0.792- 173 1.55 165 1.55 125 1.55 221 1.55
 506  0.500  0.917  0.292- 222 1.55 126 1.55 174 1.55 166 1.55
 507  0.500  0.917  0.792- 223 1.55 127 1.55 175 1.55 167 1.55
 508  0.667  0.167  0.292- 128 1.55 224 1.55 176 1.55 168 1.55
 509  0.667  0.167  0.792- 225 1.55 169 1.55 129 1.55 177 1.55
 510  0.667  0.416  0.291- 226 1.54 170 1.54 178 1.55 130 1.55
 511  0.667  0.417  0.792- 131 1.55 179 1.55 171 1.55 227 1.55
 512  0.667  0.667  0.292- 228 1.55 180 1.55 172 1.55 132 1.55
 513  0.667  0.666  0.792- 133 1.55 173 1.55 181 1.55 229 1.55
 514  0.667  0.917  0.292- 134 1.55 182 1.55 230 1.55 174 1.55
 515  0.667  0.917  0.792- 231 1.55 175 1.55 183 1.55 135 1.55
 516  0.833  0.167  0.292- 176 1.55 136 1.55 232 1.55 184 1.55
 517  0.833  0.167  0.792- 233 1.55 137 1.55 185 1.55 177 1.55
 518  0.834  0.417  0.292- 178 1.54 186 1.55 234 1.55 138 1.55
 519  0.833  0.417  0.792- 187 1.55 235 1.55 139 1.55 179 1.55
 520  0.833  0.667  0.292- 236 1.55 188 1.55 140 1.55 180 1.55
 521  0.833  0.667  0.792- 237 1.55 141 1.55 181 1.55 189 1.55
 522  0.833  0.917  0.292- 238 1.55 182 1.55 142 1.55 190 1.55
 523  0.833  0.917  0.792- 239 1.55 143 1.55 183 1.55 191 1.55
 524  0.083  0.042  0.292-  96 1.55 150 1.55 240 1.55 104 1.55
 525  0.083  0.042  0.792- 241 1.55  97 1.55 151 1.55 105 1.55
 526  0.083  0.292  0.292-  98 1.55 242 1.55 144 1.55 106 1.55
 527  0.083  0.292  0.792- 243 1.55 107 1.55  99 1.55 145 1.55
 528  0.083  0.542  0.292- 108 1.55 244 1.55 100 1.55 146 1.55
 529  0.083  0.542  0.792- 245 1.55 109 1.55 147 1.55 101 1.55
 530  0.083  0.792  0.292- 102 1.55 148 1.55 246 1.55 110 1.55
 531  0.083  0.792  0.792- 247 1.55 149 1.55 111 1.55 103 1.55
 532  0.250  0.042  0.292- 158 1.55 104 1.55 248 1.55 112 1.55
 533  0.250  0.042  0.792- 249 1.55 105 1.55 113 1.55 159 1.55
 534  0.250  0.292  0.292- 106 1.55 152 1.55 250 1.55 114 1.55
 535  0.250  0.292  0.792- 251 1.55 107 1.55 115 1.55 153 1.55
 536  0.250  0.542  0.292- 252 1.55 108 1.55 154 1.55 116 1.55
 537  0.250  0.542  0.792- 117 1.55 155 1.55 109 1.55 253 1.55
 538  0.250  0.792  0.292- 110 1.55 254 1.55 156 1.55 118 1.55
 539  0.250  0.792  0.792- 255 1.55 157 1.55 119 1.55 111 1.55
 540  0.417  0.042  0.292- 166 1.55 256 1.55 112 1.55 120 1.55
 541  0.417  0.042  0.792- 257 1.55 113 1.55 121 1.55 167 1.55
 542  0.417  0.292  0.292- 258 1.55 160 1.55 114 1.55 122 1.55
 543  0.417  0.292  0.792- 115 1.55 123 1.55 161 1.55 259 1.55
 544  0.417  0.542  0.291- 260 1.54 116 1.54 162 1.55 124 1.55
 545  0.416  0.542  0.793- 117 1.54 261 1.54 163 1.55 125 1.55
 546  0.417  0.792  0.292- 164 1.55 262 1.55 118 1.55 126 1.55
 547  0.417  0.792  0.792- 263 1.55 119 1.55 165 1.55 127 1.55
 548  0.583  0.042  0.292- 264 1.55 174 1.55 128 1.55 120 1.55
 549  0.583  0.042  0.792- 265 1.55 129 1.55 175 1.55 121 1.55
 550  0.583  0.292  0.292- 266 1.55 168 1.55 130 1.55 122 1.55
 551  0.583  0.292  0.792- 169 1.55 131 1.55 123 1.55 267 1.55
 552  0.583  0.541  0.292- 132 1.54 268 1.55 170 1.55 124 1.56
 553  0.584  0.542  0.793- 133 1.54 269 1.54 171 1.55 125 1.55
 554  0.583  0.792  0.292- 134 1.55 270 1.55 172 1.55 126 1.55
 555  0.583  0.792  0.792- 271 1.55 135 1.55 173 1.55 127 1.55
 556  0.750  0.042  0.292- 272 1.55 182 1.55 136 1.55 128 1.55
 557  0.750  0.042  0.792- 273 1.55 129 1.55 137 1.55 183 1.55
 558  0.750  0.291  0.292- 130 1.54 274 1.55 176 1.55 138 1.55
 559  0.750  0.292  0.792- 275 1.55 177 1.55 139 1.55 131 1.55
 560  0.750  0.542  0.292- 276 1.55 140 1.55 178 1.55 132 1.55
 561  0.750  0.542  0.792- 179 1.55 141 1.55 133 1.55 277 1.55
 562  0.750  0.792  0.292- 278 1.55 142 1.55 134 1.55 180 1.55
 563  0.750  0.792  0.792- 279 1.55 181 1.55 135 1.55 143 1.55
 564  0.917  0.042  0.292- 136 1.55 190 1.55 280 1.55  96 1.55
 565  0.917  0.042  0.792- 281 1.55 137 1.55 191 1.55  97 1.55
 566  0.917  0.292  0.292- 138 1.55 282 1.55 184 1.55  98 1.55
 567  0.917  0.292  0.792- 283 1.55 139 1.55 185 1.55  99 1.55
 568  0.917  0.542  0.292- 100 1.55 284 1.55 186 1.55 140 1.55
 569  0.917  0.542  0.792- 285 1.55 141 1.55 187 1.55 101 1.55
 570  0.917  0.792  0.292- 142 1.55 286 1.55 188 1.55 102 1.55
 571  0.917  0.792  0.792- 287 1.55 143 1.55 189 1.55 103 1.55
 572  0.589  0.455  0.456- 573 1.09  75 1.52  37 1.52 170 1.52
 573  0.530  0.485  0.483- 572 1.09
 574  0.498  0.589  0.454-  69 1.49 124 1.49  77 1.51
 575  0.410  0.457  0.454-  22 1.49 162 1.49  67 1.51
 576  0.500  0.500  0.637- 219 1.48 269 1.48 261 1.48
 
  LATTYP: Found a simple monoclinic cell.
 ALAT       =    12.3703241348
 B/A-ratio  =     1.2248453018
 C/A-ratio  =     1.4141600350
 COS(beta)  =    -0.0000282295
  
  Lattice vectors:
  
 A1 = (   0.0000000000,  -0.0003492082,  12.3703241299)
 A2 = (  15.1517333984,   0.0000000000,   0.0000000000)
 A3 = (   0.0000000000,  17.4936180115,   0.0000000000)


Analysis of symmetry for initial positions (statically):
=====================================================================
 Subroutine PRICEL returns:
 Original cell was already a primitive cell.
 

 Routine SETGRP: Setting up the symmetry group for a 
 simple monoclinic supercell.


 Subroutine GETGRP returns: Found  1 space group operations
 (whereof  1 operations were pure point group operations)
 out of a pool of  4 trial point group operations.


The static configuration has the point symmetry C_1 .


Analysis of symmetry for dynamics (positions and initial velocities):
=====================================================================
 Subroutine PRICEL returns:
 Original cell was already a primitive cell.
 

 Routine SETGRP: Setting up the symmetry group for a 
 simple monoclinic supercell.


 Subroutine GETGRP returns: Found  1 space group operations
 (whereof  1 operations were pure point group operations)
 out of a pool of  4 trial point group operations.


The dynamic configuration has the point symmetry C_1 .


Analysis of structural, dynamic, and magnetic symmetry:
=====================================================================
 Subroutine PRICEL returns:
 Original cell was already a primitive cell.
 

 Routine SETGRP: Setting up the symmetry group for a 
 simple monoclinic supercell.


 Subroutine GETGRP returns: Found  1 space group operations
 (whereof  1 operations were pure point group operations)
 out of a pool of  4 trial point group operations.


The overall configuration has the point symmetry C_1 .


 Subroutine INISYM returns: Found  1 space group operations
 (whereof  1 operations are pure point group operations),
 and found     1 'primitive' translations


----------------------------------------------------------------------------------------

                                     Primitive cell                                     

  volume of cell :    3278.8612

  direct lattice vectors                    reciprocal lattice vectors
    15.151733398  0.000000000  0.000000000     0.065999049  0.000000000  0.000000000
     0.000000000 17.493618012  0.000000000     0.000000000  0.057163704  0.000001614
     0.000000000 -0.000349208 12.370324130     0.000000000  0.000000000  0.080838626

  length of vectors
    15.151733398 17.493618012 12.370324135     0.065999049  0.057163704  0.080838626

  position of ions in fractional coordinates (direct lattice)
     0.000007898  0.999968514  0.999985465
     0.000007331  0.999947458  0.500021983
     0.000033780  0.249973858  0.999926819
     0.000088392  0.249957665  0.499945504
     0.000031125  0.499991885  0.999960350
     0.000007916  0.499948556  0.499949540
     0.999988886  0.749973956  0.999991417
     0.999941300  0.749963289  0.500015785
     0.166671557  0.000006953  0.999986640
     0.166638592  0.000053753  0.500014938
     0.166667973  0.249998343  0.999899667
     0.166716340  0.250041711  0.499943144
     0.166653095  0.499997147  0.999968394
     0.166180219  0.499995711  0.499849987
     0.166663731  0.749993021  0.999984663
     0.166618177  0.750016127  0.499974161
     0.333342309  0.000047500  0.999964479
     0.333345980  0.000104651  0.499994790
     0.333354169  0.250028370  0.000026753
     0.333304284  0.250128122  0.499902383
     0.333256827  0.500022959  0.000204870
     0.333692391  0.499836711  0.498915934
     0.333331441  0.750028132  0.999980850
     0.333081628  0.750451546  0.499859764
     0.499989363  0.000034503  0.999965304
     0.499992909  0.000057977  0.499985559
     0.500021476  0.249952880  0.000261547
     0.500024641  0.250545772  0.499889904
     0.500031474  0.499987931  0.000448352
     0.499985840  0.750108005  0.999830874
     0.499831114  0.749923477  0.499935504
     0.666647689  0.000000881  0.999992074
     0.666638610  0.999998389  0.500004306
     0.666716798  0.249957669  0.000083570
     0.667136668  0.249595656  0.499933252
     0.666776751  0.499984398  0.000396502
     0.667824999  0.499086353  0.499414447
     0.666642912  0.749975562  0.000057083
     0.666516252  0.749978041  0.499920043
     0.833336789  0.999966417  0.999999232
     0.833368018  0.999926886  0.500014950
     0.833417229  0.249943276  0.999941699
     0.833523720  0.249832941  0.499977101
     0.833399924  0.499970243  0.000057913
     0.833878663  0.499811667  0.499947046
     0.833317504  0.749961679  0.000019546
     0.833199774  0.749853078  0.500003174
     0.083348133  0.124985815  0.999947514
     0.083365780  0.124999247  0.499985384
     0.083333671  0.374981643  0.999862690
     0.083395064  0.375006478  0.499918249
     0.083336975  0.624989452  0.999982501
     0.083277860  0.625009343  0.499949494
     0.083328353  0.874980058  0.999982721
     0.083295079  0.874992174  0.500013000
     0.250011817  0.125029923  0.999969103
     0.249993854  0.125046132  0.499977769
     0.249882867  0.374947804  0.999773763
     0.250071386  0.375192822  0.499897495
     0.249930203  0.625033094  0.000162771
     0.250104536  0.624954208  0.499756998
     0.250003202  0.875014904  0.999965710
     0.249908166  0.875178988  0.499979126
     0.416674288  0.125045229  0.999988776
     0.416728152  0.125200808  0.499970181
     0.416693005  0.374951823  0.000344067
     0.417184894  0.377059441  0.499271940
     0.416604496  0.625073166  0.000228187
     0.417012170  0.624840504  0.498904219
     0.416667684  0.875050115  0.999906873
     0.416619142  0.875064635  0.499958960
     0.583337101  0.125005097  0.000018260
     0.583319375  0.125104223  0.499974892
     0.583393516  0.374907107  0.000418593
     0.584818839  0.374513422  0.499401298
     0.583390347  0.625010674  0.000378803
     0.581480485  0.623592540  0.499262721
     0.583313342  0.875023661  0.999937113
     0.583276949  0.874987136  0.499962185
     0.750022027  0.124962772  0.999985075
     0.750143358  0.124834744  0.499973951
     0.750196773  0.374892753  0.999904272
     0.750525875  0.374706583  0.500002125
     0.750082032  0.624997346  0.000308963
     0.749425136  0.624677303  0.499907228
     0.749973436  0.874970650  0.999996663
     0.749944424  0.874977267  0.499993347
     0.916702702  0.124961799  0.999953980
     0.916752832  0.124912861  0.499979198
     0.916753676  0.374957698  0.999890723
     0.916901616  0.374909531  0.499954756
     0.916688119  0.624979581  0.000029812
     0.916537234  0.624942482  0.499979041
     0.916657302  0.874960931  0.999990960
     0.916620571  0.874919767  0.500014487
     0.000035834  0.083290167  0.333326543
     0.000020465  0.083305280  0.833307290
     0.000095911  0.333299075  0.333269047
     0.000052126  0.333320843  0.833247870
     0.999963086  0.583313826  0.333320740
     0.000029682  0.583313581  0.833312042
     0.999963527  0.833310562  0.333357845
     0.999990444  0.833280701  0.833321603
     0.166691166  0.083357129  0.333318582
     0.166709438  0.083357162  0.833297055
     0.166755873  0.333393869  0.333265426
     0.166708068  0.333356902  0.833169651
     0.166614224  0.583367446  0.333282463
     0.166763032  0.583300356  0.833242394
     0.166641587  0.833373613  0.333320982
     0.166700773  0.833293055  0.833303646
     0.333345163  0.083423007  0.333332515
     0.333353523  0.083416701  0.833271116
     0.333397406  0.333524699  0.333227325
     0.333403062  0.333426400  0.833325908
     0.333306762  0.583359360  0.333278338
     0.333226871  0.583386528  0.833958138
     0.333244677  0.833460392  0.333279165
     0.333345410  0.833314093  0.833263044
     0.500012257  0.083395599  0.333356911
     0.499998393  0.083405167  0.833292839
     0.500123140  0.333652638  0.333487986
     0.500080517  0.333149213  0.834148608
     0.499457915  0.583636861  0.333893850
     0.500061589  0.583408430  0.834144650
     0.499947275  0.833301966  0.333313739
     0.499990465  0.833328790  0.833244445
     0.666702836  0.083319738  0.333328047
     0.666665588  0.083342296  0.833307005
     0.667035181  0.333064027  0.333173564
     0.666758417  0.333295562  0.833478704
     0.666385458  0.583061323  0.333514944
     0.666900938  0.583351312  0.834155871
     0.666622280  0.833301513  0.333333910
     0.666626120  0.833267635  0.833288369
     0.833394722  0.083246393  0.333309265
     0.833333483  0.083295023  0.833302837
     0.833504327  0.333223765  0.333267065
     0.833425744  0.333284944  0.833258166
     0.833254271  0.583244521  0.333374446
     0.833316910  0.583269020  0.833353541
     0.833267671  0.833262413  0.333349161
     0.833271161  0.833253057  0.833306780
     0.083396237  0.208332733  0.333299376
     0.083380305  0.208340699  0.833264535
     0.083312875  0.458330584  0.333257126
     0.083404029  0.458339718  0.833267375
     0.083295720  0.708350281  0.333364235
     0.083373107  0.708288826  0.833299962
     0.083341780  0.958326039  0.333354440
     0.083365249  0.958308608  0.833335361
     0.250025616  0.208397248  0.333343160
     0.250058063  0.208412290  0.833297816
     0.249855823  0.458433344  0.333161940
     0.250086064  0.458361552  0.833323291
     0.249938127  0.708394923  0.333331416
     0.250073687  0.708277243  0.833278899
     0.249982416  0.958417122  0.333353954
     0.250026308  0.958353762  0.833336290
     0.416702085  0.208501475  0.333381687
     0.416683742  0.208466609  0.833274669
     0.416126571  0.458609641  0.333859028
     0.416630702  0.458261522  0.834149644
     0.416486500  0.708447776  0.333180533
     0.416666253  0.708279005  0.833310946
     0.416640184  0.958383978  0.333332844
     0.416657323  0.958371047  0.833274396
     0.583396094  0.208386248  0.333370345
     0.583381398  0.208380309  0.833357610
     0.584645193  0.457651829  0.332829790
     0.583598341  0.458195658  0.834333851
     0.583195760  0.708214243  0.333280457
     0.583305045  0.708243236  0.833355517
     0.583330512  0.958333734  0.333345019
     0.583326776  0.958345714  0.833283005
     0.750165897  0.208181270  0.333306895
     0.750042784  0.208309231  0.833357432
     0.750392231  0.458162222  0.333194980
     0.750076703  0.458286946  0.833495904
     0.749865652  0.708205360  0.333424210
     0.749897070  0.708230711  0.833306666
     0.749989874  0.958301885  0.333377097
     0.749964953  0.958300126  0.833348984
     0.916739886  0.208263589  0.333288793
     0.916699142  0.208302157  0.833273806
     0.916801565  0.458271289  0.333277771
     0.916713921  0.458316663  0.833321756
     0.916598652  0.708290577  0.333386715
     0.916607249  0.708274552  0.833313578
     0.916651931  0.958280966  0.333352423
     0.916639618  0.958279226  0.833336733
     0.000044672  0.166631120  0.166610766
     0.000054857  0.166644326  0.666625439
     0.000039103  0.416630171  0.166557855
     0.000097167  0.416656621  0.666616257
     0.999985684  0.666663206  0.166680717
     0.999973651  0.666599851  0.666638920
     0.999993512  0.916642903  0.166659740
     0.999988145  0.916608059  0.666675369
     0.166682010  0.166675054  0.166625893
     0.166749041  0.166750411  0.666623039
     0.166591567  0.416652902  0.166500814
     0.166876572  0.416740490  0.666564127
     0.166612291  0.666702353  0.166717859
     0.166845117  0.666559393  0.666598292
     0.166658012  0.916694437  0.166656974
     0.166711800  0.916638312  0.666687705
     0.333351211  0.166717821  0.166693329
     0.333501931  0.166979903  0.666630292
     0.332928890  0.416548095  0.166164067
     0.333699048  0.416950920  0.666467709
     0.333254112  0.666743761  0.166694848
     0.333826237  0.666023518  0.666483911
     0.333316766  0.916742969  0.166625607
     0.333367064  0.916678337  0.666633964
     0.500017787  0.166683164  0.166752791
     0.500032658  0.166958636  0.666598476
     0.499986946  0.416727683  0.167153032
     0.500259607  0.418480621  0.668699955
     0.499923221  0.667061323  0.166203601
     0.499906052  0.666297289  0.666448984
     0.499983733  0.916701269  0.166629785
     0.499982541  0.916657149  0.666595992
     0.666713553  0.166636613  0.166694896
     0.666620387  0.166805074  0.666700313
     0.667143190  0.416418477  0.166296491
     0.666766933  0.416616751  0.666795537
     0.666632440  0.666620539  0.166879345
     0.666019501  0.665894063  0.666487756
     0.666650949  0.916672049  0.166666513
     0.666595809  0.916602905  0.666638914
     0.833421739  0.166598150  0.166614660
     0.833381012  0.166632082  0.666648766
     0.833511273  0.416586617  0.166552720
     0.833398201  0.416615974  0.666691102
     0.833337153  0.666638960  0.166801195
     0.833073932  0.666481821  0.666618804
     0.833324087  0.916633151  0.166681465
     0.833261408  0.916559790  0.666680632
     0.083356310  0.041652050  0.166639995
     0.083374608  0.041655471  0.666661700
     0.083377270  0.291652428  0.166574305
     0.083424630  0.291697985  0.666567904
     0.083323589  0.541666918  0.166624867
     0.083546739  0.541666218  0.666652178
     0.083318749  0.791672133  0.166659126
     0.083367450  0.791603097  0.666660667
     0.250000771  0.041710141  0.166620584
     0.250061560  0.041762835  0.666633864
     0.249977249  0.291673999  0.166558731
     0.250165054  0.291879150  0.666553624
     0.249929305  0.541700881  0.166652169
     0.250899506  0.541625073  0.666483835
     0.249971955  0.791718431  0.166620485
     0.250113775  0.791494233  0.666643583
     0.416655211  0.041710532  0.166653324
     0.416679033  0.041788998  0.666617313
     0.416683901  0.291719266  0.166818193
     0.417102465  0.292544352  0.666471195
     0.416521115  0.541758231  0.166837889
     0.418671927  0.540681734  0.668172878
     0.416617355  0.791770771  0.166539874
     0.416692669  0.791529092  0.666579461
     0.583345377  0.041675177  0.166666043
     0.583324151  0.041741733  0.666626713
     0.583401048  0.291645013  0.166805101
     0.583148132  0.292259290  0.666727643
     0.583278022  0.541651137  0.167189226
     0.581657025  0.540577623  0.668690098
     0.583320677  0.791701665  0.166608706
     0.583224906  0.791471410  0.666588160
     0.750014576  0.041636560  0.166630718
     0.749972454  0.041653232  0.666643780
     0.750164195  0.291549922  0.166555215
     0.750070923  0.291660835  0.666663353
     0.750041446  0.541610409  0.166803080
     0.749325630  0.541509998  0.666746166
     0.749970040  0.791627579  0.166685299
     0.749794333  0.791385261  0.666630424
     0.916680929  0.041623688  0.166642126
     0.916659681  0.041611515  0.666664856
     0.916741615  0.291615703  0.166578081
     0.916733952  0.291635648  0.666595714
     0.916685571  0.541639358  0.166671419
     0.916572610  0.541625263  0.666695730
     0.916638068  0.791639969  0.166673314
     0.916577093  0.791570253  0.666656849
     0.000010715  0.999968256  0.124970291
     0.000009277  0.999953933  0.625005373
     0.000047494  0.249970436  0.124910216
     0.000075347  0.249988707  0.624920833
     0.000019514  0.500002028  0.124930812
     0.000059289  0.499995970  0.624953597
     0.999979069  0.749997786  0.124983203
     0.999965544  0.749946140  0.624989863
     0.166667387  0.000011914  0.124958838
     0.166704910  0.000021537  0.624985823
     0.166680191  0.249996449  0.124890929
     0.166775956  0.250091618  0.624908584
     0.166631137  0.500027608  0.124905396
     0.166995757  0.500016832  0.624847271
     0.166630858  0.750021595  0.124964636
     0.166716014  0.749926466  0.624951115
     0.333331599  0.000049943  0.124943297
     0.333369969  0.000068289  0.624960381
     0.333369261  0.250038552  0.125001418
     0.333581344  0.250462189  0.624851632
     0.333236136  0.500023965  0.124899801
     0.334741671  0.499746406  0.624338266
     0.333294660  0.750047803  0.124927988
     0.333506122  0.749763451  0.624852827
     0.499991294  0.000024009  0.124961690
     0.499995425  0.000041395  0.624949975
     0.500018885  0.249984636  0.125139110
     0.500064126  0.250461440  0.624872786
     0.499958675  0.500038205  0.125314718
     0.499970416  0.750159136  0.124593254
     0.499947784  0.749814382  0.624875483
     0.666655377  0.999990045  0.124972046
     0.666626589  0.999992689  0.624963135
     0.666715857  0.249960181  0.125015249
     0.666656763  0.250189384  0.624963012
     0.666723813  0.499965180  0.125171614
     0.665755940  0.499421008  0.624722259
     0.666641754  0.749966345  0.125034316
     0.666340628  0.749593634  0.624864923
     0.833345583  0.999960074  0.124975877
     0.833312638  0.999930905  0.624987000
     0.833439353  0.249923101  0.124888689
     0.833408728  0.249944177  0.624956248
     0.833399214  0.499975195  0.124997375
     0.833178316  0.499909760  0.624980112
     0.833324361  0.749968084  0.125016624
     0.833199529  0.749843814  0.624962462
     0.083362695  0.124979541  0.124941146
     0.083391046  0.125006200  0.624968153
     0.083328493  0.374994613  0.124832857
     0.083463415  0.375046663  0.624901453
     0.083309534  0.625019453  0.124979524
     0.083394749  0.624971247  0.624939510
     0.083317391  0.874995192  0.124976503
     0.083337671  0.874957373  0.625000833
     0.250017771  0.125034785  0.124963339
     0.250096777  0.125158339  0.624949755
     0.249845184  0.374957359  0.124529785
     0.250220100  0.375178081  0.624856380
     0.249909353  0.625062813  0.125028989
     0.250297650  0.624856533  0.624795072
     0.249982355  0.875042904  0.124951253
     0.250044252  0.874960977  0.624971240
     0.416682862  0.125034337  0.125001298
     0.416740531  0.125207660  0.624942096
     0.416631853  0.375017133  0.125131668
     0.417227719  0.376511282  0.624541825
     0.416601293  0.625114898  0.124927832
     0.417623071  0.624103450  0.624332435
     0.416642411  0.875059084  0.124893266
     0.416665451  0.874953730  0.624933475
     0.583341983  0.124993600  0.125012342
     0.583309829  0.125142325  0.624957785
     0.583396596  0.374964068  0.125184054
     0.583457354  0.375960144  0.624718358
     0.583296652  0.625034511  0.125172773
     0.582113065  0.623848488  0.624521403
     0.583323302  0.875017364  0.124941340
     0.583279841  0.874900633  0.624939778
     0.750037520  0.124961237  0.124966607
     0.750005118  0.125013159  0.624976488
     0.750246212  0.374874032  0.124643945
     0.750174967  0.374924610  0.625007062
     0.750040017  0.624993627  0.125187078
     0.749559553  0.624710092  0.624892757
     0.749982847  0.874976165  0.124994971
     0.749887137  0.874854891  0.624970079
     0.916720979  0.124947753  0.124936872
     0.916715829  0.124943652  0.624965717
     0.916772261  0.374959760  0.124849297
     0.916782168  0.374981152  0.624945681
     0.916679469  0.624995114  0.125025615
     0.916553305  0.624932187  0.624964352
     0.916661497  0.874967146  0.124987326
     0.916619902  0.874920381  0.624998908
     0.000046770  0.083278428  0.458337922
     0.000019688  0.083301266  0.958289121
     0.000144736  0.333294296  0.458296378
     0.000042348  0.333318959  0.958214960
     0.999925505  0.583328884  0.458326230
     0.000017309  0.583338437  0.958298603
     0.999952101  0.833297415  0.458363777
     0.999990327  0.833301234  0.958309624
     0.166670155  0.083347904  0.458336550
     0.166687559  0.083338195  0.958278416
     0.166772733  0.333399422  0.458289878
     0.166642359  0.333322354  0.958077472
     0.166528223  0.583390929  0.458286316
     0.166681028  0.583336345  0.958271891
     0.166605646  0.833380902  0.458333545
     0.166668483  0.833317725  0.958285236
     0.333368977  0.083440585  0.458326541
     0.333343950  0.083377632  0.958271446
     0.333469627  0.333285903  0.458428240
     0.333359025  0.333350882  0.958317824
     0.333266385  0.583379648  0.458141759
     0.333203491  0.583411328  0.958624206
     0.333078452  0.833607514  0.458333105
     0.333332041  0.833346068  0.958240159
     0.500009575  0.083412057  0.458343752
     0.499994686  0.083366323  0.958296732
     0.500364184  0.334135220  0.458252480
     0.500043485  0.333176481  0.958798778
     0.500018853  0.583389338  0.958818239
     0.499944564  0.833300160  0.458330538
     0.499990306  0.833381136  0.958166643
     0.666680090  0.083317128  0.458321400
     0.666660910  0.083323312  0.958295282
     0.667381623  0.332382274  0.458487356
     0.666742713  0.333272030  0.958435505
     0.665998637  0.582638894  0.458261425
     0.666853346  0.583378284  0.958821133
     0.666674735  0.833332504  0.458354412
     0.666643730  0.833303396  0.958288189
     0.833421386  0.083196814  0.458326680
     0.833345351  0.083293253  0.958286695
     0.833648480  0.333156671  0.458331220
     0.833449831  0.333272584  0.958162263
     0.833201074  0.583225066  0.458356053
     0.833358398  0.583316836  0.958387206
     0.833255404  0.833244372  0.458344287
     0.833307585  0.833288444  0.958307153
     0.083405319  0.208329809  0.458305486
     0.083368336  0.208319983  0.958248325
     0.083121513  0.458393815  0.458322417
     0.083365173  0.458344375  0.958233736
     0.083273107  0.708355119  0.458358028
     0.083346158  0.708318969  0.958290681
     0.083329690  0.958318810  0.458361466
     0.083353827  0.958312919  0.958314019
     0.250032609  0.208332270  0.458364816
     0.250032184  0.208364920  0.958282533
     0.249040936  0.458708814  0.458406246
     0.249991700  0.458346281  0.958275937
     0.249885582  0.708438987  0.458324517
     0.250004382  0.708325929  0.958309306
     0.249938999  0.958457484  0.458366761
     0.250009925  0.958353135  0.958314980
     0.416721342  0.208574278  0.458348680
     0.416674236  0.208378441  0.958330971
     0.416628306  0.458302041  0.958812409
     0.415807489  0.708935311  0.458422257
     0.416642663  0.708351252  0.958280146
     0.416647619  0.958387531  0.458335912
     0.416652960  0.958372719  0.958262923
     0.583392275  0.208435367  0.458347705
     0.583361020  0.208331155  0.958388993
     0.583470314  0.458263507  0.958929185
     0.583444317  0.708290384  0.458465489
     0.583337577  0.708312966  0.958362893
     0.583319520  0.958332788  0.458344208
     0.583329291  0.958350489  0.958276591
     0.750233917  0.207994276  0.458349847
     0.750043380  0.208293514  0.958330444
     0.751217486  0.458233880  0.458508512
[...]
 196      -0.004    -0.000     0.007       0.534
 197      -0.005    -0.002     0.008       0.392
 198       0.001     0.001    -0.002       0.122
 199       0.002     0.001    -0.003       0.126
 200      -0.004     0.004    -0.005      -1.603
 201      -0.005    -0.003     0.006       0.322
 202      -0.019     0.003    -0.024      -0.907
 203      -0.018    -0.013     0.019       0.238
 204      -0.008     0.006    -0.011      -1.292
 205      -0.010     0.009    -0.012      -1.606
 206      -0.003    -0.002     0.003       0.395
 207      -0.004    -0.002     0.004       0.504
 208      -0.002     0.002     0.014       0.283
 209       0.008    -0.008    -0.012       1.392
 210       0.222     0.217     0.365      -0.015
 211      -0.087     0.004    -0.099      -0.918
 212      -0.021     0.013    -0.022      -1.544
 213       0.029    -0.025    -0.029       1.838
 214       0.006    -0.003    -0.006       1.382
 215      -0.007    -0.005     0.007       0.347
 216      -0.008    -0.004     0.008       0.537
 217       0.002    -0.001     0.023      -0.107
 218      -0.031    -0.026     0.033       0.172
 219       0.066     0.012     0.161      -0.332
 220       0.212     0.207     0.351      -0.016
 221      -0.087     0.003    -0.098      -0.908
 222       0.007    -0.004    -0.008       1.306
 223      -0.006    -0.002     0.012       0.353
 224       0.005    -0.003    -0.005       1.620
 225      -0.004    -0.003     0.009       0.114
 226      -0.013    -0.010     0.017       0.137
 227      -0.018    -0.016     0.028       0.061
 228      -0.014    -0.011     0.021       0.151
 229      -0.058    -0.018    -0.064      -0.625
 230       0.005    -0.003    -0.006       1.471
 231      -0.005    -0.004     0.007       0.137
 232       0.002    -0.000    -0.002       1.081
 233      -0.003    -0.000     0.003       0.938
 234      -0.007    -0.002     0.008       0.625
 235      -0.008    -0.005     0.011       0.294
 236      -0.007    -0.003     0.008       0.547
 237      -0.001     0.001     0.022       0.074
 238      -0.001    -0.000     0.004       0.350
 239      -0.003    -0.001     0.003       0.569
 240       0.002    -0.001    -0.002       1.225
 241      -0.003    -0.000     0.003       0.836
 242       0.005    -0.004    -0.006       1.549
 243      -0.004    -0.003     0.010       0.122
 244      -0.005     0.001     0.014       0.395
 245       0.010    -0.007    -0.013       1.349
 246      -0.003    -0.002     0.004       0.327
 247      -0.004    -0.002     0.005       0.432
 248      -0.002    -0.000     0.006       0.340
 249       0.005    -0.003    -0.005       1.641
 250      -0.017     0.005    -0.021      -1.021
 251      -0.017    -0.013     0.017       0.208
 252      -0.021     0.013    -0.022      -1.531
 253      -0.030    -0.025     0.030       0.162
 254       0.001    -0.001     0.014      -0.108
 255       0.008    -0.008    -0.010       1.574
 256      -0.006    -0.002     0.007       0.578
 257      -0.003    -0.000     0.011       0.263
 258      -0.015    -0.011     0.021       0.160
 259      -0.060    -0.019    -0.067      -0.610
 260      -0.087    -0.051    -0.108      -0.333
 261      -0.104     0.026    -0.122      -1.060
 262      -0.018     0.003    -0.022      -0.982
 263      -0.017    -0.013     0.019       0.198
 264       0.005    -0.002    -0.005       1.428
 265      -0.001     0.000     0.010       0.188
 266       0.012    -0.009    -0.013       1.686
 267      -0.006    -0.003     0.034       0.081
 268      -0.031    -0.026     0.032       0.162
 269       0.066     0.012     0.162      -0.333
 270      -0.017     0.004    -0.021      -0.981
 271      -0.017    -0.012     0.018       0.236
 272      -0.002    -0.001     0.003       0.428
 273      -0.003    -0.001     0.004       0.488
 274      -0.005    -0.003     0.006       0.242
 275      -0.005    -0.004     0.010       0.136
 276       0.013    -0.008    -0.015       1.423
 277      -0.005    -0.003     0.037       0.064
 278       0.001    -0.000     0.013      -0.109
 279      -0.008     0.007    -0.010      -1.485
 280       0.002     0.000    -0.002       0.785
 281       0.002     0.000    -0.003       0.623
 282       0.004    -0.001    -0.004       1.336
 283      -0.003    -0.001     0.006       0.370
 284      -0.007    -0.001     0.009       0.691
 285      -0.007    -0.003     0.012       0.391
 286      -0.003    -0.001     0.003       0.513
 287      -0.003    -0.001     0.005       0.407
 288      -0.002     0.000     0.002       1.009
 289       0.002     0.001    -0.003       0.604
 290       0.002     0.000     0.008      -0.215
 291      -0.002     0.000     0.007       0.306
 292      -0.004     0.002     0.009       0.680
 293       0.004     0.000     0.021      -0.207
 294      -0.002    -0.000     0.004       0.359
 295      -0.005    -0.002     0.005       0.428
 296      -0.002    -0.001     0.003       0.343
 297      -0.004     0.002    -0.006      -0.957
 298       0.002     0.000     0.016      -0.148
 299      -0.005    -0.004     0.013       0.123
 300       0.003    -0.001     0.022      -0.171
 301       0.018     0.014     0.060      -0.068
 302      -0.002     0.000     0.007       0.300
 303      -0.005    -0.004     0.011       0.152
 304      -0.004    -0.001     0.006       0.493
 305      -0.004    -0.002     0.010       0.205
 306      -0.006    -0.003     0.013       0.249
 307       0.007     0.003     0.048      -0.066
 308      -0.028     0.011    -0.040      -0.976
 309       0.582     0.569     0.837      -0.015
 310       0.003    -0.001     0.021      -0.200
 311       0.019     0.017     0.060      -0.041
 312       0.003    -0.002     0.011      -0.405
 313      -0.005    -0.003     0.010       0.225
 314       0.003    -0.000     0.021      -0.149
 315       0.056     0.051     0.094      -0.049
 316      -0.028     0.009    -0.049      -0.752
 317       0.108     0.097     0.181      -0.062
 318       0.036     0.018     0.089      -0.203
 319      -0.002    -0.000     0.005       0.385
 320      -0.003    -0.002     0.007       0.188
 321       0.001    -0.001     0.011      -0.144
 322      -0.011     0.009    -0.012      -1.694
 323       0.005    -0.001     0.034      -0.167
 324      -0.041     0.033    -0.043      -1.708
 325      -0.006    -0.004     0.012       0.147
 326       0.005     0.003     0.046      -0.047
 327      -0.002    -0.000     0.002       0.575
 328      -0.002     0.001     0.005       0.642
 329      -0.002    -0.000     0.004       0.451
 330      -0.004    -0.002     0.006       0.414
 331       0.004    -0.003     0.014      -0.461
 332      -0.009    -0.006     0.017       0.210
 333      -0.002    -0.000     0.006       0.256
 334      -0.006    -0.005     0.009       0.109
 335      -0.001    -0.000     0.004       0.251
 336      -0.003    -0.001     0.004       0.609
 337       0.007     0.002     0.021      -0.215
 338      -0.007    -0.004     0.014       0.262
 339      -0.002    -0.001     0.008       0.217
 340      -0.006    -0.004     0.014       0.178
 341      -0.001     0.000     0.003       0.618
 342      -0.003     0.000     0.004       0.880
 343      -0.004    -0.002     0.005       0.468
 344       0.005     0.004     0.019      -0.044
 345       0.113     0.102     0.188      -0.059
 346       0.036     0.018     0.090      -0.199
 347      -0.010     0.001     0.012       0.930
 348      -0.038    -0.010    -0.059      -0.460
 349      -0.002    -0.000     0.007       0.256
 350       0.008     0.007     0.021      -0.073
 351      -0.003     0.001     0.009       0.443
 352      -0.008    -0.005     0.012       0.189
 353       0.017     0.014     0.061      -0.047
 354       0.338     0.298     0.515      -0.078
 355      -0.028     0.010    -0.041      -0.943
 356       0.569     0.555     0.821      -0.017
 357       0.007     0.002     0.022      -0.225
 358      -0.008    -0.003     0.015       0.310
 359       0.003    -0.001     0.009      -0.412
 360      -0.005    -0.003     0.010       0.142
 361       0.003    -0.000     0.033      -0.094
 362      -0.046     0.028    -0.050      -1.463
 363       0.017     0.014     0.061      -0.045
 364       0.330     0.290     0.504      -0.080
 365       0.004    -0.001     0.017      -0.267
 366      -0.007    -0.004     0.014       0.264
 367      -0.002    -0.000     0.003       0.347
 368       0.004    -0.002    -0.005       1.332
 369      -0.007    -0.003     0.008       0.528
 370       0.013    -0.012    -0.013       1.877
 371      -0.002     0.002     0.020       0.193
 372       0.050     0.047     0.089      -0.028
 373      -0.003    -0.002     0.004       0.260
 374       0.007     0.006     0.019      -0.069
 375      -0.001     0.001     0.002       1.445
 376       0.002     0.002    -0.003       0.033
 377      -0.003     0.002     0.007       0.666
 378      -0.005    -0.003     0.009       0.254
 379       0.004    -0.001     0.010      -0.434
 380      -0.007    -0.004     0.011       0.244
 381      -0.002     0.000     0.002       0.830
 382      -0.002     0.001     0.004       0.784
 383       0.004     0.000     0.007      -0.625
 384      -0.001    -0.000     0.001       0.699
 385      -0.004    -0.001     0.016       0.156
 386      -0.003     0.002     0.004       1.211
 387      -0.013     0.009    -0.013      -1.675
 388      -0.005     0.003     0.006       1.283
 389      -0.004     0.001     0.005       0.930
 390      -0.001    -0.000     0.001       0.274
 391       0.006     0.002     0.027      -0.156
 392      -0.002    -0.000     0.002       0.674
 393       0.086     0.085     0.168      -0.006
 394       0.010     0.002     0.020      -0.422
 395      -0.028     0.007    -0.040      -0.879
 396      -0.006     0.002     0.007       1.074
 397      -0.010     0.001    -0.013      -0.827
 398      -0.001     0.001     0.002       1.062
 399       0.006     0.006     0.024      -0.025
 400       0.004     0.001    -0.004       0.808
 401       2.266     2.249     3.161      -0.005
 402       0.020     0.015     0.037      -0.151
 403      -0.164     0.044     0.212       0.980
 404      -0.012    -0.010     0.014       0.115
 405       0.099     0.093     0.172      -0.035
 406       0.004     0.002    -0.005       0.349
 407      -0.006    -0.006     0.014       0.061
 408      -0.004     0.001     0.005       1.204
 409       0.325     0.275     0.490      -0.102
 410      -0.003     0.002     0.018       0.264
 411      -0.011    -0.008     0.024       0.115
 412       0.083     0.082     0.164      -0.006
 413       0.011     0.001     0.021      -0.490
 414      -0.002    -0.000     0.010       0.177
 415      -0.003    -0.000     0.003       0.809
 416      -0.042     0.003    -0.048      -0.945
 417      -0.004     0.002     0.007       0.796
 418       0.302     0.256     0.470      -0.098
 419       0.003    -0.003     0.019      -0.336
 420       0.166     0.159     0.260      -0.025
 421       0.003     0.002    -0.004       0.342
 422      -0.004     0.000     0.006       0.726
 423      -0.001    -0.000     0.002       0.473
 424      -0.006    -0.004     0.012       0.217
 425       0.003     0.001    -0.004       0.352
 426      -0.012    -0.010     0.021       0.085
 427       0.003     0.003    -0.007       0.012
 428       0.002    -0.001     0.014      -0.238
 429      -0.001     0.001     0.002       0.920
 430       0.002    -0.001     0.017      -0.188
 431      -0.002     0.001     0.003       0.913
 432       0.090     0.083     0.170      -0.043
 433       0.004     0.003    -0.007       0.231
 434      -0.009     0.006    -0.011      -1.298
 435       0.003     0.002    -0.003       0.426
 436       0.009     0.003     0.010      -0.620
 437      -0.001    -0.000     0.002       0.273
 438       0.172     0.165     0.268      -0.027
 439       0.003     0.002    -0.004       0.329
 440       1.746     1.717     2.495      -0.011
 441      -0.006    -0.000     0.019       0.284
 442      -0.027     0.005    -0.040      -0.796
 443      -0.004     0.000     0.007       0.648
 444       0.025     0.025     0.041      -0.020
 445      -0.003    -0.000     0.003       0.832
 446      -0.008    -0.006     0.037       0.062
 447      -0.005     0.004     0.006       1.351
 448      -0.011    -0.008     0.025       0.126
 449       1.727     1.700     2.451      -0.011
 450      -0.005    -0.001     0.019       0.221
 451      -0.003    -0.002     0.020       0.051
 452      -0.004     0.002     0.006       1.028
 453      -0.005    -0.003     0.022       0.098
 454       0.002     0.001    -0.006       0.191
 455      -0.010    -0.007     0.018       0.160
 456       2.230     2.213     3.097      -0.005
 457       0.020     0.014     0.036      -0.156
 458      -0.003    -0.003     0.018       0.032
 459      -0.004     0.002     0.005       1.048
 460      -0.005    -0.002     0.010       0.289
 461      -0.002     0.001     0.002       1.270
 462      -0.045     0.008    -0.049      -1.097
 463      -0.006     0.003     0.007       1.280
 464      -0.010    -0.007     0.035       0.084
 465      -0.004     0.002     0.006       1.092
 466       0.025     0.023     0.042      -0.049
 467      -0.002    -0.001     0.002       0.629
 468      -0.004     0.002     0.005       1.194
 469      -0.000    -0.000     0.002       0.160
 470      -0.007    -0.006     0.026       0.057
 471      -0.005     0.003     0.006       1.371
 472      -0.003    -0.001     0.013       0.147
 473       0.003     0.001    -0.003       0.615
 474       0.004    -0.000     0.006      -0.657
 475      -0.001     0.000     0.002       0.658
 476       0.002    -0.001     0.008      -0.405
 477      -0.001    -0.000     0.002       0.630
 478       0.005     0.002     0.024      -0.146
 479       0.006     0.000    -0.006       0.974
 480      -0.004    -0.003     0.009       0.118
 481      -0.005    -0.000     0.005       0.848
 482       0.002    -0.002     0.002      -1.852
 483      -0.001     0.001     0.001       1.612
 484       0.003     0.001     0.019      -0.096
 485      -0.003    -0.001     0.004       0.401
 486       0.093     0.092     0.182      -0.009
 487       0.013     0.005     0.029      -0.278
 488      -0.010     0.004     0.014       1.057
 489      -0.007    -0.003     0.008       0.500
 490      -0.003    -0.000     0.006       0.535
 491      -0.002    -0.001     0.003       0.329
 492      -0.007    -0.005     0.014       0.098
 493      -0.005    -0.000     0.008       0.567
 494       1.798     1.768     2.564      -0.012
 495       0.058     0.052     0.117      -0.048
 496       0.052    -0.000     0.091      -0.576
 497       0.009     0.007     0.041      -0.037
 498       0.006     0.005     0.025      -0.039
 499      -0.005    -0.000     0.006       0.755
 500       0.008     0.003     0.025      -0.209
 501      -0.007    -0.002     0.007       0.686
 502       0.555     0.539     0.804      -0.020
 503       0.025    -0.025    -0.028       1.805
 504       1.752     1.724     2.497      -0.011
 505       0.056     0.050     0.115      -0.048
 506       0.016     0.014     0.047      -0.050
 507      -0.005     0.003     0.008       0.950
 508       0.003     0.001     0.014      -0.163
 509      -0.004    -0.001     0.005       0.435
 510      -0.016    -0.014     0.036       0.070
 511       0.012    -0.010    -0.014       1.624
 512       0.034     0.020     0.086      -0.161
 513      -0.010    -0.005     0.017       0.283
 514       0.003     0.002     0.020      -0.020
 515      -0.004    -0.001     0.005       0.589
 516      -0.003     0.001     0.004       1.132
 517      -0.001    -0.000     0.002       0.630
 518      -0.006    -0.002     0.015       0.207
 519       0.007    -0.001    -0.007       1.145
 520      -0.001    -0.001     0.020       0.037
 521      -0.006    -0.001     0.007       0.682
 522      -0.003    -0.001     0.004       0.578
 523      -0.002    -0.001     0.003       0.311
 524      -0.002     0.001     0.005       0.626
 525      -0.001     0.000     0.003       0.407
 526       0.020     0.019     0.049      -0.026
 527       0.003    -0.002     0.007      -0.851
 528       0.005     0.003     0.027      -0.088
 529       0.008    -0.001    -0.008       1.096
 530      -0.004    -0.001     0.006       0.533
 531      -0.002    -0.001     0.003       0.369
 532      -0.002    -0.002     0.008       0.093
 533      -0.003    -0.000     0.005       0.544
 534       0.083     0.080     0.165      -0.015
 535       0.012     0.007     0.028      -0.183
 536       0.054    -0.000     0.090      -0.603
 537       0.010     0.006     0.042      -0.090
 538       0.007     0.001     0.024      -0.216
 539      -0.006    -0.003     0.006       0.415
 540       0.002    -0.000     0.016      -0.138
 541      -0.004     0.000     0.007       0.650
 542       0.037     0.022     0.089      -0.172
 543      -0.011    -0.005     0.018       0.309
 544      -0.180     0.030     0.184       1.147
 545      -0.015    -0.010     0.046       0.098
 546       0.094     0.093     0.182      -0.011
 547       0.012     0.005     0.028      -0.262
 548       0.002    -0.000     0.014      -0.156
 549      -0.004    -0.000     0.006       0.580
 550       0.057     0.054     0.111      -0.029
 551      -0.009    -0.005     0.013       0.271
 552       0.558     0.541     0.803      -0.022
 553      -0.026    -0.023     0.027       0.102
 554       0.082     0.079     0.162      -0.018
 555       0.012     0.006     0.028      -0.220
 556      -0.002     0.001     0.006       0.384
 557      -0.002    -0.001     0.003       0.290
 558      -0.006    -0.004     0.011       0.163
 559       0.005    -0.003    -0.005       1.581
 560       0.059     0.058     0.114      -0.009
 561      -0.011    -0.005     0.012       0.532
 562      -0.007    -0.005     0.012       0.169
 563      -0.003    -0.001     0.007       0.296
 564      -0.002     0.001     0.003       1.048
 565      -0.002     0.000     0.002       1.036
 566       0.002    -0.002     0.010      -0.368
 567      -0.002    -0.000     0.004       0.585
 568       0.002    -0.002     0.018      -0.175
 569       0.006    -0.001    -0.008       0.944
 570      -0.004    -0.001     0.006       0.445
 571      -0.002    -0.001     0.003       0.511
 572      -0.638    -0.561    -0.756      -0.101
 573       0.241     0.036    -0.397       0.517
 574      14.771    14.727    25.630      -0.002
 575      15.048    15.003    26.244      -0.002
 576      -0.625    -0.532    -0.739      -0.126
 ---------------------------------------------------------------------



--------------------------------------------------------------------------------------------------------


     LOOP+:  cpu time 1030.4214: real time 1033.7469
    4ORBIT:  cpu time    0.0000: real time    0.0000

 total amount of memory used by VASP MPI-rank0   238701. kBytes
=======================================================================

   base      :      30000. kBytes
   nonlr-proj:       9224. kBytes
   fftplans  :      15014. kBytes
   grid      :      46644. kBytes
   one-center:        294. kBytes
   wavefun   :     137525. kBytes
 
  
  
 General timing and accounting informations for this job:
 ========================================================
  
                  Total CPU time used (sec):     1061.234
                            User time (sec):     1057.559
                          System time (sec):        3.675
                         Elapsed time (sec):     1065.242
  
                   Maximum memory used (kb):      430568.
                   Average memory used (kb):          N/A
  
                          Minor page faults:       605972
                          Major page faults:            0
                 Voluntary context switches:        11224
