 vasp.6.2.0 18Jan21 (build Apr 30 2021 19:00:08) gamma-only                     
  
 executed on             LinuxIFC date 2022.12.30  16:22:01
 running on   24 total cores
 distrk:  each k-point on   24 cores,    1 groups
 distr:  one band on NCORE=   6 cores,    4 groups


--------------------------------------------------------------------------------------------------------


 INCAR:
   SYSTEM = Diamond
   PREC = Normal
   ISTART = 0
   ICHARG = 11
   ISPIN = 2
   MAGMOM = 572*0.0 1*2.0 2*2.0 1*3
   NPAR = 4
   NELECT = 2303
   LHYPERFINE = T
   LEFG = T
   ENCUT = 700
   NELM = 1000
   NELMIN = 4
   EDIFF = 1E-06
   LREAL = Auto
   ALGO = Normal
   EDIFFG = -1E-02
   NSW = 0
   IBRION = 2
   ISIF = 2
   ISYM = 2
   POTIM = 0.5
   ISMEAR = 0
   SIGMA = 0.05
   NEDOS = 1000
   LWAVE = F
   LCHARG = F
   LVHAR = F
   LELF = F

 POTCAR:    PAW_PBE C 08Apr2002                   
 POTCAR:    PAW_PBE H 15Jun2001                   
 POTCAR:    PAW_PBE C 08Apr2002                   
 POTCAR:    PAW_PBE N 08Apr2002                   
 POTCAR:    PAW_PBE C 08Apr2002                   
   VRHFIN =C: s2p2                                                                                  
   LEXCH  = PE                                                                                      
   EATOM  =   147.1560 eV,   10.8157 Ry                                                             
                                                                                                    
   TITEL  = PAW_PBE C 08Apr2002                                                                     
   LULTRA =        F    use ultrasoft PP ?                                                          
   IUNSCR =        1    unscreen: 0-lin 1-nonlin 2-no                                               
   RPACOR =    1.200    partial core radius                                                         
   POMASS =   12.011; ZVAL   =    4.000    mass and valenz                                          
   RCORE  =    1.500    outmost cutoff radius                                                       
   RWIGS  =    1.630; RWIGS  =    0.863    wigner-seitz radius (au A)                               
   ENMAX  =  400.000; ENMIN  =  300.000 eV                                                          
   ICORE  =        2    local potential                                                             
   LCOR   =        T    correct aug charges                                                         
   LPAW   =        T    paw PP                                                                      
   EAUG   =  644.873                                                                                
   DEXC   =    0.000                                                                                
   RMAX   =    1.529    core radius for proj-oper                                                   
   RAUG   =    1.300    factor for augmentation sphere                                              
   RDEP   =    1.501    radius for radial grids                                                     
   RDEPT  =    1.300    core radius for aug-charge                                                  
                                                                                                    
   Atomic configuration                                                                             
    4 entries                                                                                       
     n  l   j            E        occ.                                                              
     1  0  0.50      -273.3789   2.0000                                                             
     2  0  0.50       -13.7508   2.0000                                                             
     2  1  0.50        -5.2854   2.0000                                                             
     3  2  1.50        -5.4423   0.0000                                                             
   Description                                                                                      
     l       E           TYP  RCUT    TYP  RCUT                                                     
     0    -13.7508458     23  1.200                                                                 
     0     -8.2022199     23  1.200                                                                 
     1     -5.2854383     23  1.500                                                                 
     1     34.0145650     23  1.500                                                                 
     2     -5.4423304      7  1.500                                                                 
  local pseudopotential read in
  partial core-charges read in
  partial kinetic energy density read in
  atomic valenz-charges read in
  non local Contribution for L=           0  read in
    real space projection operators read in
  non local Contribution for L=           0  read in
    real space projection operators read in
  non local Contribution for L=           1  read in
    real space projection operators read in
  non local Contribution for L=           1  read in
    real space projection operators read in
    PAW grid and wavefunctions read in
 
   number of l-projection  operators is LMAX  =           4
   number of lm-projection operators is LMMAX =           8
 
 POTCAR:    PAW_PBE H 15Jun2001                   
   VRHFIN =H: ultrasoft test                                                                        
   LEXCH  = PE                                                                                      
   EATOM  =    12.4884 eV,    0.9179 Ry                                                             
                                                                                                    
   TITEL  = PAW_PBE H 15Jun2001                                                                     
   LULTRA =        F    use ultrasoft PP ?                                                          
   IUNSCR =        0    unscreen: 0-lin 1-nonlin 2-no                                               
   RPACOR =    0.000    partial core radius                                                         
   POMASS =    1.000; ZVAL   =    1.000    mass and valenz                                          
   RCORE  =    1.100    outmost cutoff radius                                                       
   RWIGS  =    0.700; RWIGS  =    0.370    wigner-seitz radius (au A)                               
   ENMAX  =  250.000; ENMIN  =  200.000 eV                                                          
   RCLOC  =    0.701    cutoff for local pot                                                        
   LCOR   =        T    correct aug charges                                                         
   LPAW   =        T    paw PP                                                                      
   EAUG   =  400.000                                                                                
   RMAX   =    1.123    core radius for proj-oper                                                   
   RAUG   =    1.200    factor for augmentation sphere                                              
   RDEP   =    1.112    radius for radial grids                                                     
   RDEPT  =    0.926    core radius for aug-charge                                                  
                                                                                                    
   Atomic configuration                                                                             
    2 entries                                                                                       
     n  l   j            E        occ.                                                              
     1  0  0.50        -6.4927   1.0000                                                             
     2  1  0.50        -3.4015   0.0000                                                             
   Description                                                                                      
     l       E           TYP  RCUT    TYP  RCUT                                                     
     0     -6.4927494     23  1.100                                                                 
     0      6.8029130     23  1.100                                                                 
     1     -4.0817478     23  1.100                                                                 
  local pseudopotential read in
  atomic valenz-charges read in
  non local Contribution for L=           0  read in
    real space projection operators read in
  non local Contribution for L=           0  read in
    real space projection operators read in
  non local Contribution for L=           1  read in
    real space projection operators read in
    PAW grid and wavefunctions read in
 
   number of l-projection  operators is LMAX  =           3
   number of lm-projection operators is LMMAX =           5
 
 POTCAR:    PAW_PBE C 08Apr2002                   
   VRHFIN =C: s2p2                                                                                  
   LEXCH  = PE                                                                                      
   EATOM  =   147.1560 eV,   10.8157 Ry                                                             
                                                                                                    
   TITEL  = PAW_PBE C 08Apr2002                                                                     
   LULTRA =        F    use ultrasoft PP ?                                                          
   IUNSCR =        1    unscreen: 0-lin 1-nonlin 2-no                                               
   RPACOR =    1.200    partial core radius                                                         
   POMASS =   12.011; ZVAL   =    4.000    mass and valenz                                          
   RCORE  =    1.500    outmost cutoff radius                                                       
   RWIGS  =    1.630; RWIGS  =    0.863    wigner-seitz radius (au A)                               
   ENMAX  =  400.000; ENMIN  =  300.000 eV                                                          
   ICORE  =        2    local potential                                                             
   LCOR   =        T    correct aug charges                                                         
   LPAW   =        T    paw PP                                                                      
   EAUG   =  644.873                                                                                
   DEXC   =    0.000                                                                                
   RMAX   =    1.529    core radius for proj-oper                                                   
   RAUG   =    1.300    factor for augmentation sphere                                              
   RDEP   =    1.501    radius for radial grids                                                     
   RDEPT  =    1.300    core radius for aug-charge                                                  
                                                                                                    
   Atomic configuration                                                                             
    4 entries                                                                                       
     n  l   j            E        occ.                                                              
     1  0  0.50      -273.3789   2.0000                                                             
     2  0  0.50       -13.7508   2.0000                                                             
     2  1  0.50        -5.2854   2.0000                                                             
     3  2  1.50        -5.4423   0.0000                                                             
   Description                                                                                      
     l       E           TYP  RCUT    TYP  RCUT                                                     
     0    -13.7508458     23  1.200                                                                 
     0     -8.2022199     23  1.200                                                                 
     1     -5.2854383     23  1.500                                                                 
     1     34.0145650     23  1.500                                                                 
     2     -5.4423304      7  1.500                                                                 
  local pseudopotential read in
  partial core-charges read in
  partial kinetic energy density read in
  atomic valenz-charges read in
  non local Contribution for L=           0  read in
    real space projection operators read in
  non local Contribution for L=           0  read in
    real space projection operators read in
  non local Contribution for L=           1  read in
    real space projection operators read in
  non local Contribution for L=           1  read in
    real space projection operators read in
    PAW grid and wavefunctions read in
 
   number of l-projection  operators is LMAX  =           4
   number of lm-projection operators is LMMAX =           8
 
 POTCAR:    PAW_PBE N 08Apr2002                   
   VRHFIN =N: s2p3                                                                                  
   LEXCH  = PE                                                                                      
   EATOM  =   264.5486 eV,   19.4438 Ry                                                             
                                                                                                    
   TITEL  = PAW_PBE N 08Apr2002                                                                     
   LULTRA =        F    use ultrasoft PP ?                                                          
   IUNSCR =        1    unscreen: 0-lin 1-nonlin 2-no                                               
   RPACOR =    1.200    partial core radius                                                         
   POMASS =   14.001; ZVAL   =    5.000    mass and valenz                                          
   RCORE  =    1.500    outmost cutoff radius                                                       
   RWIGS  =    1.400; RWIGS  =    0.741    wigner-seitz radius (au A)                               
   ENMAX  =  400.000; ENMIN  =  300.000 eV                                                          
   ICORE  =        2    local potential                                                             
   LCOR   =        T    correct aug charges                                                         
   LPAW   =        T    paw PP                                                                      
   EAUG   =  627.112                                                                                
   DEXC   =    0.000                                                                                
   RMAX   =    1.529    core radius for proj-oper                                                   
   RAUG   =    1.300    factor for augmentation sphere                                              
   RDEP   =    1.514    radius for radial grids                                                     
   RDEPT  =    1.338    core radius for aug-charge                                                  
                                                                                                    
   Atomic configuration                                                                             
    4 entries                                                                                       
     n  l   j            E        occ.                                                              
     1  0  0.50      -384.7179   2.0000                                                             
     2  0  0.50       -18.5828   2.0000                                                             
     2  1  0.50        -7.0898   3.0000                                                             
     3  2  1.50        -6.8029   0.0000                                                             
   Description                                                                                      
     l       E           TYP  RCUT    TYP  RCUT                                                     
     0    -18.5828119     23  1.200                                                                 
     0    -13.5018863     23  1.200                                                                 
     1     -7.0897853     23  1.500                                                                 
     1      9.5240782     23  1.500                                                                 
     2     -6.8029130      7  1.500                                                                 
  local pseudopotential read in
  partial core-charges read in
  partial kinetic energy density read in
  atomic valenz-charges read in
  non local Contribution for L=           0  read in
    real space projection operators read in
  non local Contribution for L=           0  read in
    real space projection operators read in
  non local Contribution for L=           1  read in
    real space projection operators read in
  non local Contribution for L=           1  read in
    real space projection operators read in
    PAW grid and wavefunctions read in
 
   number of l-projection  operators is LMAX  =           4
   number of lm-projection operators is LMMAX =           8
 
 Optimization of the real space projectors (new method)

 maximal supplied QI-value         = 25.13
 optimisation between [QCUT,QGAM] = [ 13.32, 26.89] = [ 49.69,202.52] Ry 
 Optimized for a Real-space Cutoff    1.01 Angstroem

   l    n(q)    QCUT    max X(q) W(low)/X(q) W(high)/X(q)  e(spline) 
   0      8    13.321   115.676    0.29E-03    0.42E-03    0.11E-06
   0      8    13.321    87.132    0.29E-03    0.42E-03    0.11E-06
   1      8    13.321     4.429    0.39E-03    0.33E-03    0.98E-07
   1      8    13.321     2.733    0.30E-03    0.26E-03    0.97E-07
 Optimization of the real space projectors (new method)

 maximal supplied QI-value         = 34.20
 optimisation between [QCUT,QGAM] = [ 13.34, 27.02] = [ 49.83,204.46] Ry 
 Optimized for a Real-space Cutoff    0.93 Angstroem

   l    n(q)    QCUT    max X(q) W(low)/X(q) W(high)/X(q)  e(spline) 
   0      7    13.340    19.460    0.47E-03    0.72E-04    0.17E-06
   0      7    13.340    12.209    0.45E-03    0.63E-04    0.16E-06
   1      7    13.340     4.655    0.21E-03    0.61E-03    0.12E-06
 Optimization of the real space projectors (new method)

 maximal supplied QI-value         = 25.13
 optimisation between [QCUT,QGAM] = [ 13.32, 26.89] = [ 49.69,202.52] Ry 
 Optimized for a Real-space Cutoff    1.01 Angstroem

   l    n(q)    QCUT    max X(q) W(low)/X(q) W(high)/X(q)  e(spline) 
   0      8    13.321   115.676    0.29E-03    0.42E-03    0.11E-06
   0      8    13.321    87.132    0.29E-03    0.42E-03    0.11E-06
   1      8    13.321     4.429    0.39E-03    0.33E-03    0.98E-07
   1      8    13.321     2.733    0.30E-03    0.26E-03    0.97E-07
 Optimization of the real space projectors (new method)

 maximal supplied QI-value         = 25.13
 optimisation between [QCUT,QGAM] = [ 13.32, 26.89] = [ 49.69,202.52] Ry 
 Optimized for a Real-space Cutoff    1.01 Angstroem

   l    n(q)    QCUT    max X(q) W(low)/X(q) W(high)/X(q)  e(spline) 
   0      8    13.321    79.467    0.28E-03    0.38E-03    0.11E-06
   0      8    13.321    66.151    0.27E-03    0.38E-03    0.11E-06
   1      8    13.321    23.070    0.40E-03    0.78E-03    0.29E-06
   1      8    13.321    16.668    0.40E-03    0.79E-03    0.30E-06
  PAW_PBE C 08Apr2002                   :
 energy of atom  1       EATOM= -147.1560
 kinetic energy error for atom=    0.0032 (will be added to EATOM!!)
  PAW_PBE H 15Jun2001                   :
 energy of atom  2       EATOM=  -12.4884
 kinetic energy error for atom=    0.0002 (will be added to EATOM!!)
  PAW_PBE C 08Apr2002                   :
 energy of atom  3       EATOM= -147.1560
 kinetic energy error for atom=    0.0032 (will be added to EATOM!!)
  PAW_PBE N 08Apr2002                   :
 energy of atom  4       EATOM= -264.5486
 kinetic energy error for atom=    0.0061 (will be added to EATOM!!)
 
 
 POSCAR: Autosave
  positions in direct lattice
  velocities in cartesian coordinates
 exchange correlation table for  LEXCH =        8
   RHO(1)=    0.500       N(1)  =     2000
   RHO(2)=  100.500       N(2)  =     4000
 


--------------------------------------------------------------------------------------------------------


 ion  position               nearest neighbor table
   1  0.000  1.000  0.000- 288 1.55 475 1.55 437 1.55 384 1.55
   2  0.000  1.000  0.500- 383 1.55 474 1.55 289 1.55 436 1.55
   3  1.000  0.250  1.000- 290 1.55 469 1.55 386 1.55 431 1.55
   4  1.000  0.250  0.500- 468 1.55 430 1.55 291 1.55 385 1.55
   5  0.000  0.500  1.000- 292 1.55 388 1.55 471 1.55 433 1.55
   6  0.000  0.500  0.500- 470 1.54 432 1.54 293 1.55 387 1.55
   7  0.000  0.750  0.000- 294 1.55 473 1.55 390 1.55 435 1.55
   8  0.000  0.750  0.500- 295 1.55 472 1.55 389 1.55 434 1.55
   9  0.167  1.000  0.000- 296 1.55 445 1.55 437 1.55 392 1.55
  10  0.167  1.000  0.500- 391 1.54 444 1.55 436 1.55 297 1.55
  11  0.167  0.250  1.000- 298 1.55 431 1.55 439 1.55 394 1.55
  12  0.167  0.250  0.500- 430 1.54 393 1.55 299 1.55 438 1.55
  13  0.167  0.500  1.000- 300 1.55 396 1.55 433 1.55 441 1.55
  14  0.166  0.500  0.500- 440 1.54 432 1.54 301 1.55 395 1.55
  15  0.167  0.750  0.000- 443 1.55 302 1.55 435 1.55 398 1.55
  16  0.167  0.750  0.500- 303 1.55 434 1.55 442 1.55 397 1.55
  17  0.333  0.000  1.000- 304 1.55 452 1.55 445 1.55 400 1.55
  18  0.333  0.000  0.500- 399 1.55 451 1.55 305 1.55 444 1.55
  19  0.333  0.250  1.000- 306 1.55 447 1.55 439 1.55 402 1.55
  20  0.333  0.250  0.500- 401 1.54 438 1.54 307 1.55 446 1.55
  21  0.333  0.500  0.000- 308 1.55 404 1.55 448 1.55 441 1.55
  22  0.334  0.498  0.498- 576 1.48 440 1.54 403 1.56 309 1.56
  23  0.333  0.750  0.000- 310 1.55 450 1.55 443 1.55 406 1.55
  24  0.333  0.750  0.500- 449 1.54 405 1.54 311 1.55 442 1.55
  25  0.500  0.000  1.000- 312 1.55 452 1.55 459 1.55 408 1.55
  26  0.500  0.000  0.500- 407 1.55 313 1.55 458 1.55 451 1.55
  27  0.500  0.250  1.000- 410 1.55 314 1.55 447 1.55 454 1.55
  28  0.500  0.251  0.500- 315 1.54 446 1.55 453 1.55 409 1.55
  29  0.500  0.500  0.000- 411 1.55 448 1.55 455 1.55 316 1.55
  30  0.500  0.750  0.000- 317 1.54 450 1.55 413 1.55 457 1.55
  31  0.500  0.750  0.500- 412 1.55 318 1.55 456 1.55 449 1.55
  32  0.667  0.000  1.000- 319 1.55 459 1.55 467 1.55 415 1.55
  33  0.667  0.000  0.500- 414 1.55 458 1.55 320 1.55 466 1.55
  34  0.667  0.250  1.000- 321 1.55 454 1.55 417 1.55 461 1.55
  35  0.667  0.250  0.500- 416 1.54 460 1.54 322 1.55 453 1.55
  36  0.667  0.500  0.000- 323 1.55 419 1.55 455 1.55 463 1.55
  37  0.668  0.499  0.499- 572 1.52 462 1.54 324 1.55 418 1.55
  38  0.667  0.750  0.000- 325 1.55 457 1.55 465 1.55 421 1.55
  39  0.667  0.751  0.500- 456 1.54 420 1.54 326 1.55 464 1.55
  40  0.833  1.000  0.000- 327 1.55 467 1.55 475 1.55 423 1.55
  41  0.833  0.000  0.500- 422 1.54 466 1.55 474 1.55 328 1.55
  42  0.833  0.250  1.000- 329 1.55 469 1.55 461 1.55 425 1.55
  43  0.833  0.250  0.500- 468 1.55 330 1.55 424 1.55 460 1.55
  44  0.833  0.500  0.000- 331 1.55 471 1.55 427 1.55 463 1.55
  45  0.834  0.500  0.500- 462 1.54 470 1.54 332 1.55 426 1.55
  46  0.833  0.750  0.000- 465 1.55 333 1.55 473 1.55 429 1.55
  47  0.833  0.750  0.500- 464 1.55 334 1.55 472 1.55 428 1.55
  48  0.083  0.125  1.000- 335 1.55 384 1.55 392 1.55 431 1.55
  49  0.083  0.125  0.500- 383 1.55 430 1.55 391 1.55 336 1.55
  50  0.083  0.375  1.000- 337 1.55 386 1.55 394 1.55 433 1.55
  51  0.083  0.375  0.500- 385 1.54 393 1.55 338 1.55 432 1.55
  52  0.083  0.625  1.000- 388 1.55 435 1.55 339 1.55 396 1.55
  53  0.083  0.625  0.500- 340 1.55 434 1.55 387 1.55 395 1.55
  54  0.083  0.875  0.000- 341 1.55 398 1.55 390 1.55 437 1.55
  55  0.083  0.875  0.500- 389 1.55 342 1.55 436 1.55 397 1.55
  56  0.250  0.125  1.000- 343 1.55 400 1.55 392 1.55 439 1.55
  57  0.250  0.125  0.500- 438 1.54 391 1.55 344 1.55 399 1.55
  58  0.250  0.375  1.000- 345 1.54 394 1.55 402 1.55 441 1.55
  59  0.250  0.375  0.500- 393 1.54 346 1.55 440 1.55 401 1.55
  60  0.250  0.625  0.000- 404 1.54 347 1.54 396 1.55 443 1.55
  61  0.251  0.624  0.500- 348 1.54 395 1.55 442 1.55 403 1.56
  62  0.250  0.875  0.000- 349 1.55 406 1.55 398 1.55 445 1.55
  63  0.250  0.875  0.500- 405 1.54 444 1.54 350 1.55 397 1.55
  64  0.417  0.125  1.000- 408 1.55 400 1.55 351 1.55 447 1.55
  65  0.417  0.125  0.500- 446 1.55 352 1.55 407 1.55 399 1.55
  66  0.417  0.375  0.000- 353 1.55 410 1.55 448 1.55 402 1.55
  67  0.415  0.376  0.498- 576 1.48 401 1.54 354 1.56 409 1.56
  68  0.417  0.625  0.001- 411 1.55 404 1.55 355 1.55 450 1.55
  69  0.418  0.625  0.500- 575 1.49 356 1.55 403 1.55 449 1.55
  70  0.417  0.875  0.000- 357 1.55 413 1.55 406 1.55 452 1.55
  71  0.417  0.875  0.500- 451 1.55 358 1.55 412 1.55 405 1.55
  72  0.583  0.125  1.000- 359 1.55 408 1.55 415 1.55 454 1.55
  73  0.583  0.125  0.500- 360 1.55 407 1.55 453 1.55 414 1.55
  74  0.583  0.375  0.000- 455 1.55 410 1.55 361 1.55 417 1.55
  75  0.585  0.374  0.499- 572 1.52 416 1.54 362 1.55 409 1.55
  76  0.583  0.625  0.001- 363 1.55 411 1.55 419 1.55 457 1.55
  77  0.583  0.625  0.500- 575 1.49 364 1.55 456 1.55 418 1.56
  78  0.583  0.875  0.000- 365 1.55 413 1.55 459 1.55 421 1.55
  79  0.583  0.875  0.500- 458 1.55 366 1.55 412 1.55 420 1.55
  80  0.750  0.125  1.000- 367 1.55 415 1.55 423 1.55 461 1.55
  81  0.750  0.125  0.500- 460 1.54 422 1.55 368 1.55 414 1.55
  82  0.750  0.375  1.000- 369 1.54 425 1.55 463 1.55 417 1.55
  83  0.750  0.375  0.500- 424 1.54 370 1.55 462 1.55 416 1.55
  84  0.750  0.625  0.000- 419 1.54 371 1.54 465 1.55 427 1.55
  85  0.750  0.625  0.500- 372 1.55 464 1.55 418 1.55 426 1.55
  86  0.750  0.875  0.000- 373 1.55 421 1.55 467 1.55 429 1.55
  87  0.750  0.875  0.500- 420 1.54 466 1.54 374 1.55 428 1.55
  88  0.917  0.125  1.000- 375 1.55 384 1.55 423 1.55 469 1.55
  89  0.917  0.125  0.500- 383 1.55 468 1.55 422 1.55 376 1.55
  90  0.917  0.375  1.000- 377 1.55 386 1.55 425 1.55 471 1.55
  91  0.917  0.375  0.500- 385 1.54 424 1.55 378 1.55 470 1.55
  92  0.917  0.625  0.000- 427 1.55 379 1.55 473 1.55 388 1.55
  93  0.917  0.625  0.500- 426 1.55 472 1.55 380 1.55 387 1.55
  94  0.917  0.875  0.000- 381 1.55 429 1.55 475 1.55 390 1.55
  95  0.917  0.875  0.500- 428 1.55 474 1.55 382 1.55 389 1.55
  96  1.000  0.083  0.333- 564 1.55 476 1.55 383 1.55 524 1.55
  97  0.000  0.083  0.833- 384 1.55 477 1.55 565 1.55 525 1.55
  98  1.000  0.333  0.333- 566 1.55 526 1.55 385 1.55 478 1.55
  99  0.000  0.333  0.833- 386 1.55 527 1.55 479 1.55 567 1.55
 100  0.000  0.583  0.333- 528 1.55 387 1.55 568 1.55 480 1.55
 101  0.000  0.583  0.833- 388 1.55 481 1.55 569 1.55 529 1.55
 102  0.000  0.833  0.333- 389 1.55 482 1.55 570 1.55 530 1.55
 103  0.000  0.833  0.833- 390 1.55 571 1.55 483 1.55 531 1.55
 104  0.167  0.083  0.333- 524 1.55 484 1.55 532 1.55 391 1.55
 105  0.167  0.083  0.833- 392 1.55 533 1.55 525 1.55 485 1.55
 106  0.166  0.333  0.333- 526 1.54 393 1.55 534 1.55 486 1.55
 107  0.167  0.333  0.833- 394 1.55 527 1.55 535 1.55 487 1.55
 108  0.167  0.583  0.333- 536 1.55 395 1.55 488 1.55 528 1.55
 109  0.167  0.583  0.833- 529 1.55 489 1.55 537 1.55 396 1.55
 110  0.167  0.833  0.333- 397 1.55 538 1.55 530 1.55 490 1.55
 111  0.167  0.833  0.833- 539 1.55 398 1.55 531 1.55 491 1.55
 112  0.333  0.083  0.333- 492 1.55 532 1.55 540 1.55 399 1.55
 113  0.333  0.083  0.833- 400 1.55 541 1.55 533 1.55 493 1.55
 114  0.333  0.333  0.333- 534 1.54 542 1.55 401 1.55 494 1.55
 115  0.333  0.334  0.833- 543 1.55 495 1.55 535 1.55 402 1.55
 116  0.334  0.583  0.334- 403 1.54 544 1.54 496 1.55 536 1.55
 117  0.333  0.584  0.834- 545 1.54 404 1.54 497 1.55 537 1.55
 118  0.333  0.833  0.333- 498 1.55 538 1.55 405 1.55 546 1.55
 119  0.333  0.833  0.833- 547 1.55 406 1.55 499 1.55 539 1.55
 120  0.500  0.083  0.333- 500 1.55 407 1.55 540 1.55 548 1.55
 121  0.500  0.083  0.833- 408 1.55 549 1.55 541 1.55 501 1.55
 122  0.500  0.333  0.333- 409 1.54 502 1.54 550 1.55 542 1.55
 123  0.500  0.334  0.833- 503 1.54 410 1.55 551 1.55 543 1.55
 124  0.500  0.583  0.336- 575 1.51 544 1.55 552 1.55 504 1.57
 125  0.500  0.584  0.834- 505 1.55 411 1.55 553 1.55 545 1.55
 126  0.500  0.833  0.333- 412 1.55 506 1.55 554 1.55 546 1.55
 127  0.500  0.833  0.833- 413 1.55 507 1.55 547 1.55 555 1.55
 128  0.667  0.083  0.333- 508 1.55 414 1.55 548 1.55 556 1.55
 129  0.667  0.083  0.833- 415 1.55 549 1.55 509 1.55 557 1.55
 130  0.667  0.333  0.333- 558 1.54 550 1.55 416 1.55 510 1.55
 131  0.667  0.333  0.833- 511 1.55 551 1.55 417 1.55 559 1.55
 132  0.667  0.583  0.334- 418 1.54 552 1.54 512 1.55 560 1.55
 133  0.667  0.584  0.834- 553 1.54 419 1.54 513 1.55 561 1.55
 134  0.667  0.833  0.333- 514 1.55 420 1.55 562 1.55 554 1.55
 135  0.667  0.833  0.833- 555 1.55 421 1.55 515 1.55 563 1.55
 136  0.833  0.083  0.333- 564 1.55 516 1.55 556 1.55 422 1.55
 137  0.833  0.083  0.833- 423 1.55 557 1.55 517 1.55 565 1.55
 138  0.833  0.333  0.333- 566 1.55 558 1.55 424 1.55 518 1.55
 139  0.833  0.333  0.833- 425 1.55 567 1.55 559 1.55 519 1.55
 140  0.833  0.583  0.333- 426 1.55 560 1.55 520 1.55 568 1.55
 141  0.833  0.583  0.833- 561 1.55 521 1.55 569 1.55 427 1.55
 142  0.833  0.833  0.333- 428 1.55 522 1.55 562 1.55 570 1.55
 143  0.833  0.833  0.833- 563 1.55 429 1.55 523 1.55 571 1.55
 144  0.083  0.208  0.333- 476 1.55 484 1.55 526 1.55 430 1.55
 145  0.083  0.208  0.833- 431 1.55 485 1.55 477 1.55 527 1.55
 146  0.083  0.458  0.333- 478 1.54 486 1.55 528 1.55 432 1.55
 147  0.083  0.458  0.833- 433 1.55 529 1.55 487 1.55 479 1.55
 148  0.083  0.708  0.333- 434 1.55 488 1.55 480 1.55 530 1.55
 149  0.083  0.708  0.833- 481 1.55 435 1.55 531 1.55 489 1.55
 150  0.083  0.958  0.333- 524 1.55 490 1.55 436 1.55 482 1.55
 151  0.083  0.958  0.833- 437 1.55 491 1.55 525 1.55 483 1.55
 152  0.250  0.208  0.333- 484 1.54 534 1.55 492 1.55 438 1.55
 153  0.250  0.208  0.833- 439 1.55 493 1.55 535 1.55 485 1.55
 154  0.250  0.458  0.333- 486 1.54 536 1.55 440 1.55 494 1.55
 155  0.250  0.458  0.833- 537 1.55 495 1.55 487 1.55 441 1.55
 156  0.250  0.708  0.334- 442 1.55 496 1.55 488 1.55 538 1.55
 157  0.250  0.708  0.833- 497 1.54 443 1.55 489 1.55 539 1.55
 158  0.250  0.958  0.333- 532 1.55 498 1.55 490 1.55 444 1.55
 159  0.250  0.958  0.833- 445 1.55 499 1.55 491 1.55 533 1.55
 160  0.417  0.208  0.333- 542 1.55 446 1.55 492 1.55 500 1.55
 161  0.417  0.209  0.833- 501 1.55 493 1.55 447 1.55 543 1.55
 162  0.415  0.457  0.335- 576 1.48 494 1.54 544 1.56 502 1.56
 163  0.417  0.459  0.833- 495 1.55 448 1.55 545 1.55 503 1.55
 164  0.417  0.708  0.334- 496 1.55 546 1.55 449 1.55 504 1.55
 165  0.417  0.708  0.834- 505 1.55 497 1.55 450 1.55 547 1.55
 166  0.417  0.958  0.333- 540 1.55 498 1.55 451 1.55 506 1.55
 167  0.417  0.958  0.833- 452 1.55 499 1.55 507 1.55 541 1.55
 168  0.583  0.208  0.333- 550 1.54 453 1.55 500 1.55 508 1.55
 169  0.583  0.209  0.833- 501 1.55 509 1.55 454 1.55 551 1.55
 170  0.585  0.457  0.333- 572 1.52 510 1.54 552 1.55 502 1.55
 171  0.583  0.459  0.833- 511 1.55 455 1.55 553 1.55 503 1.55
 172  0.583  0.708  0.334- 512 1.55 554 1.55 456 1.55 504 1.55
 173  0.583  0.708  0.834- 505 1.55 457 1.55 513 1.55 555 1.55
 174  0.583  0.958  0.333- 548 1.55 458 1.55 514 1.55 506 1.55
 175  0.583  0.958  0.833- 459 1.55 515 1.55 507 1.55 549 1.55
 176  0.750  0.208  0.333- 516 1.55 558 1.55 508 1.55 460 1.55
 177  0.750  0.208  0.833- 461 1.55 509 1.55 559 1.55 517 1.55
 178  0.750  0.458  0.333- 518 1.54 560 1.55 462 1.55 510 1.55
 179  0.750  0.458  0.833- 561 1.55 463 1.55 511 1.55 519 1.55
 180  0.750  0.708  0.334- 464 1.55 512 1.55 520 1.55 562 1.55
 181  0.750  0.708  0.834- 513 1.54 465 1.55 563 1.55 521 1.55
 182  0.750  0.958  0.333- 556 1.55 466 1.55 514 1.55 522 1.55
 183  0.750  0.958  0.833- 467 1.55 515 1.55 557 1.55 523 1.55
 184  0.917  0.208  0.333- 516 1.55 476 1.55 468 1.55 566 1.55
 185  0.917  0.208  0.833- 469 1.55 517 1.55 477 1.55 567 1.55
 186  0.917  0.458  0.333- 478 1.55 518 1.55 568 1.55 470 1.55
 187  0.917  0.458  0.833- 471 1.55 519 1.55 569 1.55 479 1.55
 188  0.917  0.708  0.333- 520 1.55 472 1.55 570 1.55 480 1.55
 189  0.917  0.708  0.833- 521 1.55 473 1.55 571 1.55 481 1.55
 190  0.917  0.958  0.333- 522 1.55 564 1.55 474 1.55 482 1.55
 191  0.917  0.958  0.833- 523 1.55 475 1.55 565 1.55 483 1.55
 192  1.000  0.167  0.167- 375 1.55 335 1.55 476 1.55 290 1.55
 193  0.000  0.167  0.667- 477 1.55 376 1.55 336 1.55 291 1.55
 194  1.000  0.417  0.167- 377 1.55 337 1.55 478 1.55 292 1.55
 195  0.000  0.417  0.667- 479 1.55 338 1.55 378 1.55 293 1.55
 196  0.000  0.667  0.167- 379 1.55 480 1.55 339 1.55 294 1.55
 197  0.000  0.667  0.667- 481 1.55 380 1.55 295 1.55 340 1.55
 198  0.000  0.917  0.167- 381 1.55 482 1.55 341 1.55 288 1.55
 199  0.000  0.917  0.667- 382 1.55 483 1.55 289 1.55 342 1.55
 200  0.167  0.167  0.167- 335 1.55 484 1.55 343 1.55 298 1.55
 201  0.167  0.167  0.667- 485 1.55 344 1.55 299 1.55 336 1.55
 202  0.167  0.417  0.166- 337 1.54 486 1.55 300 1.55 345 1.55
 203  0.167  0.417  0.667- 346 1.55 301 1.55 487 1.55 338 1.55
 204  0.167  0.667  0.167- 347 1.55 488 1.55 339 1.55 302 1.55
 205  0.167  0.667  0.667- 489 1.55 340 1.55 303 1.55 348 1.55
 206  0.167  0.917  0.167- 349 1.55 490 1.55 296 1.55 341 1.55
 207  0.167  0.917  0.667- 350 1.55 491 1.55 297 1.55 342 1.55
 208  0.333  0.167  0.167- 343 1.55 492 1.55 306 1.55 351 1.55
 209  0.333  0.167  0.667- 493 1.55 352 1.55 307 1.55 344 1.55
 210  0.333  0.416  0.166- 494 1.54 345 1.54 308 1.55 353 1.55
 211  0.334  0.417  0.666- 309 1.54 354 1.54 495 1.55 346 1.55
 212  0.333  0.667  0.167- 496 1.54 355 1.55 347 1.55 310 1.55
 213  0.334  0.667  0.667- 356 1.54 348 1.55 497 1.55 311 1.55
 214  0.333  0.917  0.167- 498 1.55 304 1.55 357 1.55 349 1.55
 215  0.333  0.917  0.667- 499 1.55 358 1.55 305 1.55 350 1.55
 216  0.500  0.167  0.167- 314 1.55 500 1.55 351 1.55 359 1.55
 217  0.500  0.167  0.666- 501 1.55 352 1.55 360 1.55 315 1.55
 218  0.500  0.417  0.167- 316 1.55 353 1.55 361 1.55 502 1.55
 219  0.500  0.419  0.665- 574 1.51 354 1.55 362 1.55 503 1.57
 220  0.500  0.667  0.167- 504 1.54 355 1.55 363 1.55 317 1.55
 221  0.500  0.667  0.667- 364 1.54 356 1.54 318 1.55 505 1.55
 222  0.500  0.917  0.167- 506 1.55 365 1.55 357 1.55 312 1.55
 223  0.500  0.917  0.667- 507 1.55 313 1.55 358 1.55 366 1.55
 224  0.667  0.167  0.167- 508 1.55 321 1.55 367 1.55 359 1.55
 225  0.667  0.167  0.667- 509 1.55 322 1.55 360 1.55 368 1.55
 226  0.667  0.416  0.166- 510 1.54 369 1.54 323 1.55 361 1.55
 227  0.667  0.417  0.666- 324 1.54 362 1.54 511 1.55 370 1.55
 228  0.667  0.667  0.167- 512 1.55 363 1.55 371 1.55 325 1.55
 229  0.667  0.667  0.667- 364 1.54 513 1.55 372 1.55 326 1.55
 230  0.667  0.917  0.167- 514 1.55 319 1.55 365 1.55 373 1.55
 231  0.667  0.917  0.667- 515 1.55 366 1.55 320 1.55 374 1.55
 232  0.833  0.167  0.167- 375 1.55 516 1.55 329 1.55 367 1.55
 233  0.833  0.167  0.667- 517 1.55 330 1.55 368 1.55 376 1.55
 234  0.833  0.417  0.166- 377 1.55 518 1.55 331 1.55 369 1.55
 235  0.833  0.417  0.667- 519 1.55 332 1.55 370 1.55 378 1.55
 236  0.833  0.667  0.167- 371 1.55 520 1.55 333 1.55 379 1.55
 237  0.833  0.667  0.667- 521 1.55 334 1.55 372 1.55 380 1.55
 238  0.833  0.917  0.167- 522 1.55 327 1.55 373 1.55 381 1.55
 239  0.833  0.917  0.667- 374 1.55 328 1.55 523 1.55 382 1.55
 240  0.083  0.042  0.167- 296 1.55 288 1.55 524 1.55 335 1.55
 241  0.083  0.042  0.667- 297 1.55 525 1.55 336 1.55 289 1.55
 242  0.083  0.292  0.166- 290 1.55 526 1.55 298 1.55 337 1.55
 243  0.083  0.292  0.667- 527 1.55 299 1.55 338 1.55 291 1.55
 244  0.083  0.542  0.167- 300 1.55 528 1.55 339 1.55 292 1.55
 245  0.083  0.542  0.667- 529 1.55 340 1.55 301 1.55 293 1.55
 246  0.083  0.792  0.167- 302 1.55 530 1.55 341 1.55 294 1.55
 247  0.083  0.792  0.667- 531 1.55 295 1.55 342 1.55 303 1.55
 248  0.250  0.042  0.167- 532 1.55 296 1.55 304 1.55 343 1.55
 249  0.250  0.042  0.667- 533 1.55 305 1.55 344 1.55 297 1.55
 250  0.250  0.291  0.166- 298 1.54 534 1.55 306 1.55 345 1.55
 251  0.250  0.292  0.666- 346 1.55 307 1.55 535 1.55 299 1.55
 252  0.250  0.542  0.167- 536 1.55 308 1.55 347 1.55 300 1.55
 253  0.251  0.541  0.666- 348 1.54 301 1.55 537 1.55 309 1.56
 254  0.250  0.792  0.167- 538 1.55 310 1.55 302 1.55 349 1.55
 255  0.250  0.792  0.667- 311 1.54 539 1.55 350 1.55 303 1.55
 256  0.417  0.042  0.167- 304 1.55 351 1.55 312 1.55 540 1.55
 257  0.417  0.042  0.667- 541 1.55 305 1.55 313 1.55 352 1.55
 258  0.417  0.292  0.167- 542 1.54 353 1.55 306 1.55 314 1.55
 259  0.417  0.292  0.666- 315 1.54 307 1.55 543 1.55 354 1.56
 260  0.417  0.541  0.168- 316 1.55 308 1.55 355 1.55 544 1.56
 261  0.418  0.542  0.667- 574 1.49 356 1.55 309 1.55 545 1.55
 262  0.417  0.792  0.167- 546 1.55 310 1.55 357 1.55 317 1.55
 263  0.417  0.792  0.667- 318 1.55 547 1.55 358 1.55 311 1.55
 264  0.583  0.042  0.167- 319 1.55 359 1.55 548 1.55 312 1.55
 265  0.583  0.042  0.667- 549 1.55 320 1.55 313 1.55 360 1.55
 266  0.583  0.292  0.167- 550 1.54 361 1.55 321 1.55 314 1.55
 267  0.583  0.292  0.666- 315 1.55 551 1.55 322 1.55 362 1.55
 268  0.583  0.542  0.168- 316 1.55 363 1.55 552 1.55 323 1.55
 269  0.583  0.542  0.667- 574 1.49 364 1.55 553 1.55 324 1.56
 270  0.583  0.792  0.167- 554 1.55 325 1.55 365 1.55 317 1.55
 271  0.583  0.792  0.667- 318 1.55 555 1.55 366 1.55 326 1.55
 272  0.750  0.042  0.167- 556 1.55 367 1.55 327 1.55 319 1.55
 273  0.750  0.042  0.667- 368 1.55 557 1.55 320 1.55 328 1.55
 274  0.750  0.292  0.166- 329 1.55 558 1.55 321 1.55 369 1.55
 275  0.750  0.292  0.667- 370 1.55 559 1.55 322 1.55 330 1.55
 276  0.750  0.542  0.167- 560 1.55 371 1.55 323 1.55 331 1.55
 277  0.750  0.542  0.667- 372 1.55 561 1.55 324 1.55 332 1.55
 278  0.750  0.792  0.167- 562 1.55 325 1.55 373 1.55 333 1.55
 279  0.750  0.792  0.667- 326 1.54 563 1.55 374 1.55 334 1.55
 280  0.917  0.042  0.167- 327 1.55 564 1.55 375 1.55 288 1.55
 281  0.917  0.042  0.667- 328 1.55 565 1.55 376 1.55 289 1.55
 282  0.917  0.292  0.167- 290 1.55 329 1.55 566 1.55 377 1.55
 283  0.917  0.292  0.667- 567 1.55 330 1.55 378 1.55 291 1.55
 284  0.917  0.542  0.167- 568 1.55 331 1.55 292 1.55 379 1.55
 285  0.917  0.542  0.667- 332 1.55 569 1.55 380 1.55 293 1.55
 286  0.917  0.792  0.167- 333 1.55 570 1.55 381 1.55 294 1.55
 287  0.917  0.792  0.667- 334 1.55 571 1.55 382 1.55 295 1.55
 288  0.000  1.000  0.125-   1 1.55 240 1.55 198 1.55 280 1.55
 289  0.000  1.000  0.625- 199 1.55   2 1.55 241 1.55 281 1.55
 290  1.000  0.250  0.125- 242 1.55   3 1.55 282 1.55 192 1.55
 291  0.000  0.250  0.625-   4 1.55 193 1.55 243 1.55 283 1.55
 292  0.000  0.500  0.125-   5 1.55 244 1.55 284 1.55 194 1.55
 293  0.000  0.500  0.625- 195 1.55   6 1.55 245 1.55 285 1.55
 294  0.000  0.750  0.125-   7 1.55 246 1.55 196 1.55 286 1.55
 295  0.000  0.750  0.625-   8 1.55 247 1.55 197 1.55 287 1.55
 296  0.167  1.000  0.125-   9 1.55 240 1.55 248 1.55 206 1.55
 297  0.167  0.000  0.625- 241 1.55  10 1.55 207 1.55 249 1.55
 298  0.167  0.250  0.125- 250 1.54  11 1.55 242 1.55 200 1.55
 299  0.167  0.250  0.625- 243 1.55 201 1.55  12 1.55 251 1.55
 300  0.167  0.500  0.125-  13 1.55 244 1.55 202 1.55 252 1.55
 301  0.167  0.500  0.625-  14 1.55 203 1.55 245 1.55 253 1.55
 302  0.167  0.750  0.125- 246 1.55  15 1.55 254 1.55 204 1.55
 303  0.167  0.750  0.625-  16 1.55 247 1.55 205 1.55 255 1.55
 304  0.333  1.000  0.125-  17 1.55 256 1.55 248 1.55 214 1.55
 305  0.333  0.000  0.625- 249 1.55  18 1.55 215 1.55 257 1.55
 306  0.333  0.250  0.125-  19 1.55 258 1.55 208 1.55 250 1.55
 307  0.333  0.250  0.625-  20 1.55 251 1.55 209 1.55 259 1.55
 308  0.333  0.500  0.125-  21 1.55 252 1.55 210 1.55 260 1.55
 309  0.335  0.500  0.624- 211 1.54 261 1.55 253 1.56  22 1.56
 310  0.333  0.750  0.125-  23 1.55 254 1.55 262 1.55 212 1.55
 311  0.333  0.750  0.625- 255 1.54  24 1.55 263 1.55 213 1.55
 312  0.500  0.000  0.125-  25 1.55 256 1.55 222 1.55 264 1.55
 313  0.500  0.000  0.625-  26 1.55 223 1.55 257 1.55 265 1.55
 314  0.500  0.250  0.125-  27 1.55 216 1.55 258 1.55 266 1.55
 315  0.500  0.250  0.625-  28 1.54 259 1.54 267 1.55 217 1.55
 316  0.500  0.500  0.126- 218 1.55 260 1.55 268 1.55  29 1.55
 317  0.500  0.750  0.125-  30 1.54 220 1.55 262 1.55 270 1.55
 318  0.500  0.750  0.625-  31 1.55 263 1.55 271 1.55 221 1.55
 319  0.667  1.000  0.125-  32 1.55 264 1.55 230 1.55 272 1.55
 320  0.667  0.000  0.625-  33 1.55 273 1.55 231 1.55 265 1.55
 321  0.667  0.250  0.125-  34 1.55 224 1.55 274 1.55 266 1.55
 322  0.667  0.250  0.625- 225 1.55 275 1.55  35 1.55 267 1.55
 323  0.667  0.500  0.125-  36 1.55 276 1.55 226 1.55 268 1.55
 324  0.666  0.500  0.625- 227 1.54 277 1.55  37 1.55 269 1.56
 325  0.667  0.750  0.125-  38 1.55 278 1.55 270 1.55 228 1.55
 326  0.667  0.750  0.625- 279 1.54  39 1.55 271 1.55 229 1.55
 327  0.833  1.000  0.125-  40 1.55 280 1.55 238 1.55 272 1.55
 328  0.833  0.000  0.625- 281 1.55 239 1.55  41 1.55 273 1.55
 329  0.833  0.250  0.125- 274 1.55  42 1.55 282 1.55 232 1.55
 330  0.833  0.250  0.625-  43 1.55 233 1.55 283 1.55 275 1.55
 331  0.833  0.500  0.125-  44 1.55 284 1.55 234 1.55 276 1.55
 332  0.833  0.500  0.625- 285 1.55 235 1.55  45 1.55 277 1.55
 333  0.833  0.750  0.125- 286 1.55  46 1.55 278 1.55 236 1.55
 334  0.833  0.750  0.625-  47 1.55 287 1.55 237 1.55 279 1.55
 335  0.083  0.125  0.125- 200 1.55  48 1.55 192 1.55 240 1.55
 336  0.083  0.125  0.625- 193 1.55 241 1.55  49 1.55 201 1.55
 337  0.083  0.375  0.125- 202 1.54  50 1.55 194 1.55 242 1.55
 338  0.083  0.375  0.625- 195 1.55 243 1.55  51 1.55 203 1.55
 339  0.083  0.625  0.125- 196 1.55 244 1.55  52 1.55 204 1.55
 340  0.083  0.625  0.625-  53 1.55 245 1.55 205 1.55 197 1.55
 341  0.083  0.875  0.125-  54 1.55 198 1.55 246 1.55 206 1.55
 342  0.083  0.875  0.625-  55 1.55 199 1.55 247 1.55 207 1.55
 343  0.250  0.125  0.125-  56 1.55 208 1.55 248 1.55 200 1.55
 344  0.250  0.125  0.625- 201 1.55 249 1.55  57 1.55 209 1.55
 345  0.250  0.375  0.124- 210 1.54  58 1.54 202 1.55 250 1.55
 346  0.250  0.375  0.625- 203 1.55 251 1.55  59 1.55 211 1.55
 347  0.250  0.625  0.125-  60 1.54 204 1.55 252 1.55 212 1.55
 348  0.250  0.625  0.625-  61 1.54 253 1.54 213 1.55 205 1.55
 349  0.250  0.875  0.125-  62 1.55 206 1.55 214 1.55 254 1.55
 350  0.250  0.875  0.625- 207 1.55  63 1.55 255 1.55 215 1.55
 351  0.417  0.125  0.125- 256 1.55 216 1.55 208 1.55  64 1.55
 352  0.417  0.125  0.625-  65 1.55 209 1.55 217 1.55 257 1.55
 353  0.417  0.375  0.125-  66 1.55 258 1.55 210 1.55 218 1.55
 354  0.417  0.376  0.624- 211 1.54 219 1.55  67 1.56 259 1.56
 355  0.417  0.625  0.126- 212 1.55 220 1.55  68 1.55 260 1.55
 356  0.417  0.625  0.625- 213 1.54 221 1.54 261 1.55  69 1.55
 357  0.417  0.875  0.125-  70 1.55 214 1.55 222 1.55 262 1.55
 358  0.417  0.875  0.625- 215 1.55  71 1.55 223 1.55 263 1.55
 359  0.583  0.125  0.125-  72 1.55 264 1.55 216 1.55 224 1.55
 360  0.583  0.125  0.625-  73 1.55 225 1.55 217 1.55 265 1.55
 361  0.583  0.375  0.125- 266 1.55  74 1.55 226 1.55 218 1.55
 362  0.583  0.376  0.624- 227 1.54  75 1.55 267 1.55 219 1.55
 363  0.583  0.625  0.125-  76 1.55 220 1.55 228 1.55 268 1.55
 364  0.583  0.625  0.625- 229 1.54 221 1.54  77 1.55 269 1.55
 365  0.583  0.875  0.125-  78 1.55 222 1.55 270 1.55 230 1.55
 366  0.583  0.875  0.625- 231 1.55 223 1.55 271 1.55  79 1.55
 367  0.750  0.125  0.125-  80 1.55 272 1.55 232 1.55 224 1.55
 368  0.750  0.125  0.625- 273 1.55 233 1.55  81 1.55 225 1.55
 369  0.750  0.375  0.125- 226 1.54  82 1.54 274 1.55 234 1.55
 370  0.750  0.375  0.625-  83 1.55 275 1.55 235 1.55 227 1.55
 371  0.750  0.625  0.125-  84 1.54 236 1.55 276 1.55 228 1.55
 372  0.750  0.625  0.625-  85 1.55 277 1.55 237 1.55 229 1.55
 373  0.750  0.875  0.125-  86 1.55 238 1.55 230 1.55 278 1.55
 374  0.750  0.875  0.625- 239 1.55  87 1.55 279 1.55 231 1.55
 375  0.917  0.125  0.125- 232 1.55  88 1.55 192 1.55 280 1.55
 376  0.917  0.125  0.625- 193 1.55 281 1.55  89 1.55 233 1.55
 377  0.917  0.375  0.125- 234 1.55  90 1.55 194 1.55 282 1.55
 378  0.917  0.375  0.625- 195 1.55  91 1.55 283 1.55 235 1.55
 379  0.917  0.625  0.125- 196 1.55  92 1.55 284 1.55 236 1.55
 380  0.917  0.625  0.625-  93 1.55 197 1.55 285 1.55 237 1.55
 381  0.917  0.875  0.125-  94 1.55 198 1.55 286 1.55 238 1.55
 382  0.917  0.875  0.625- 199 1.55  95 1.55 287 1.55 239 1.55
 383  0.000  0.083  0.458-  49 1.55  89 1.55   2 1.55  96 1.55
 384  0.000  0.083  0.958-  97 1.55  48 1.55  88 1.55   1 1.55
 385  1.000  0.333  0.458-  51 1.54  91 1.54   4 1.55  98 1.55
 386  0.000  0.333  0.958-  50 1.55  90 1.55  99 1.55   3 1.55
 387  0.000  0.583  0.458- 100 1.55   6 1.55  53 1.55  93 1.55
 388  0.000  0.583  0.958-  52 1.55 101 1.55   5 1.55  92 1.55
 389  0.000  0.833  0.458-  55 1.55 102 1.55   8 1.55  95 1.55
 390  0.000  0.833  0.958- 103 1.55  54 1.55   7 1.55  94 1.55
 391  0.167  0.083  0.458-  10 1.54  57 1.55  49 1.55 104 1.55
 392  0.167  0.083  0.958- 105 1.55  56 1.55  48 1.55   9 1.55
 393  0.166  0.333  0.458-  59 1.54  51 1.55  12 1.55 106 1.55
 394  0.167  0.333  0.958- 107 1.55  58 1.55  50 1.55  11 1.55
 395  0.167  0.583  0.458- 108 1.55  14 1.55  53 1.55  61 1.55
 396  0.167  0.583  0.958-  13 1.55  60 1.55  52 1.55 109 1.55
 397  0.167  0.833  0.458- 110 1.55  55 1.55  63 1.55  16 1.55
 398  0.167  0.833  0.958- 111 1.55  54 1.55  62 1.55  15 1.55
 399  0.333  0.083  0.458-  18 1.55  57 1.55 112 1.55  65 1.55
 400  0.333  0.083  0.958- 113 1.55  56 1.55  64 1.55  17 1.55
 401  0.333  0.332  0.458-  20 1.54  67 1.54 114 1.55  59 1.55
 402  0.333  0.333  0.958-  58 1.55  19 1.55 115 1.55  66 1.55
 403  0.335  0.583  0.458- 116 1.54  69 1.55  61 1.56  22 1.56
 404  0.333  0.583  0.959- 117 1.54  60 1.54  21 1.55  68 1.55
 405  0.333  0.834  0.458-  24 1.54  63 1.54 118 1.55  71 1.55
 406  0.333  0.833  0.958- 119 1.55  62 1.55  70 1.55  23 1.55
 407  0.500  0.083  0.458-  26 1.55  65 1.55  73 1.55 120 1.55
 408  0.500  0.083  0.958-  64 1.55 121 1.55  72 1.55  25 1.55
 409  0.500  0.334  0.458- 122 1.54  75 1.55  28 1.55  67 1.56
 410  0.500  0.333  0.958-  27 1.55 123 1.55  66 1.55  74 1.55
 411  0.500  0.583  0.959- 125 1.55  68 1.55  76 1.55  29 1.55
 412  0.500  0.833  0.458-  31 1.55  79 1.55 126 1.55  71 1.55
 413  0.500  0.833  0.958- 127 1.55  70 1.55  78 1.55  30 1.55
 414  0.667  0.083  0.458-  33 1.55 128 1.55  81 1.55  73 1.55
 415  0.667  0.083  0.958- 129 1.55  72 1.55  80 1.55  32 1.55
 416  0.667  0.332  0.458-  35 1.54  75 1.54 130 1.55  83 1.55
 417  0.667  0.333  0.958-  34 1.55  82 1.55 131 1.55  74 1.55
 418  0.666  0.583  0.459- 132 1.54  85 1.55  37 1.55  77 1.56
 419  0.667  0.583  0.959- 133 1.54  84 1.54  36 1.55  76 1.55
 420  0.667  0.834  0.458-  39 1.54  87 1.54 134 1.55  79 1.55
 421  0.667  0.833  0.958- 135 1.55  86 1.55  78 1.55  38 1.55
 422  0.833  0.083  0.458-  41 1.54  81 1.55  89 1.55 136 1.55
 423  0.833  0.083  0.958- 137 1.55  88 1.55  80 1.55  40 1.55
 424  0.833  0.333  0.458-  83 1.54  43 1.55  91 1.55 138 1.55
 425  0.833  0.333  0.958- 139 1.55  82 1.55  90 1.55  42 1.55
 426  0.833  0.583  0.458- 140 1.55  93 1.55  45 1.55  85 1.55
 427  0.833  0.583  0.958-  92 1.55  44 1.55 141 1.55  84 1.55
 428  0.833  0.833  0.458-  95 1.55 142 1.55  47 1.55  87 1.55
 429  0.833  0.833  0.958- 143 1.55  94 1.55  46 1.55  86 1.55
 430  0.083  0.208  0.458-  12 1.54  49 1.55   4 1.55 144 1.55
 431  0.083  0.208  0.958-  11 1.55 145 1.55  48 1.55   3 1.55
 432  0.083  0.458  0.458-  14 1.54   6 1.54 146 1.55  51 1.55
 433  0.083  0.458  0.958- 147 1.55  13 1.55  50 1.55   5 1.55
 434  0.083  0.708  0.458-  16 1.55 148 1.55  53 1.55   8 1.55
 435  0.083  0.708  0.958-  15 1.55  52 1.55 149 1.55   7 1.55
 436  0.083  0.958  0.458-  10 1.55 150 1.55  55 1.55   2 1.55
 437  0.083  0.958  0.958- 151 1.55   9 1.55   1 1.55  54 1.55
 438  0.250  0.208  0.458-  20 1.54  57 1.54  12 1.55 152 1.55
 439  0.250  0.208  0.958- 153 1.55  19 1.55  11 1.55  56 1.55
 440  0.249  0.458  0.458-  14 1.54  22 1.54 154 1.55  59 1.55
 441  0.250  0.458  0.958-  13 1.55  58 1.55 155 1.55  21 1.55
 442  0.250  0.708  0.458- 156 1.55  24 1.55  16 1.55  61 1.55
 443  0.250  0.708  0.959-  15 1.55  23 1.55 157 1.55  60 1.55
 444  0.250  0.958  0.458-  63 1.54  10 1.55 158 1.55  18 1.55
 445  0.250  0.958  0.958- 159 1.55   9 1.55  17 1.55  62 1.55
 446  0.417  0.208  0.458-  65 1.55  20 1.55 160 1.55  28 1.55
 447  0.417  0.208  0.958-  19 1.55  27 1.55  64 1.55 161 1.55
 448  0.417  0.458  0.958-  66 1.55  21 1.55  29 1.55 163 1.55
 449  0.416  0.709  0.459-  24 1.54 164 1.55  31 1.55  69 1.55
 450  0.417  0.708  0.959-  23 1.55  30 1.55 165 1.55  68 1.55
 451  0.417  0.958  0.458-  71 1.55  18 1.55 166 1.55  26 1.55
 452  0.417  0.958  0.958- 167 1.55  17 1.55  25 1.55  70 1.55
 453  0.583  0.209  0.458- 168 1.55  73 1.55  35 1.55  28 1.55
 454  0.583  0.208  0.958-  34 1.55  27 1.55  72 1.55 169 1.55
 455  0.583  0.458  0.958-  74 1.55  36 1.55  29 1.55 171 1.55
 456  0.584  0.709  0.459-  39 1.54 172 1.55  31 1.55  77 1.55
 457  0.583  0.708  0.959-  38 1.55 173 1.55  30 1.55  76 1.55
 458  0.583  0.958  0.458-  79 1.55  33 1.55 174 1.55  26 1.55
 459  0.583  0.958  0.958- 175 1.55  32 1.55  25 1.55  78 1.55
 460  0.750  0.208  0.458-  35 1.54  81 1.54 176 1.55  43 1.55
 461  0.750  0.208  0.958- 177 1.55  42 1.55  80 1.55  34 1.55
 462  0.751  0.458  0.458-  37 1.54  45 1.54 178 1.55  83 1.55
 463  0.750  0.458  0.958- 179 1.55  44 1.55  82 1.55  36 1.55
 464  0.750  0.708  0.458-  47 1.55 180 1.55  39 1.55  85 1.55
 465  0.750  0.708  0.959-  46 1.55 181 1.55  38 1.55  84 1.55
 466  0.750  0.958  0.458-  87 1.54  41 1.55 182 1.55  33 1.55
 467  0.750  0.958  0.958- 183 1.55  40 1.55  86 1.55  32 1.55
 468  0.917  0.208  0.458-  43 1.55   4 1.55  89 1.55 184 1.55
 469  0.917  0.208  0.958-  42 1.55 185 1.55   3 1.55  88 1.55
 470  0.917  0.458  0.458-  45 1.54   6 1.54 186 1.55  91 1.55
 471  0.917  0.458  0.958- 187 1.55  44 1.55   5 1.55  90 1.55
 472  0.917  0.708  0.458-   8 1.55 188 1.55  93 1.55  47 1.55
 473  0.917  0.708  0.958- 189 1.55   7 1.55  92 1.55  46 1.55
 474  0.917  0.958  0.458-  95 1.55   2 1.55  41 1.55 190 1.55
 475  0.917  0.958  0.958- 191 1.55   1 1.55  94 1.55  40 1.55
 476  1.000  0.167  0.292- 144 1.55 184 1.55  96 1.55 192 1.55
 477  0.000  0.167  0.792- 193 1.55 185 1.55  97 1.55 145 1.55
 478  1.000  0.417  0.292- 146 1.54 186 1.55 194 1.55  98 1.55
 479  0.000  0.417  0.792- 195 1.55  99 1.55 147 1.55 187 1.55
 480  0.000  0.667  0.292- 196 1.55 100 1.55 148 1.55 188 1.55
 481  0.000  0.667  0.792- 197 1.55 101 1.55 149 1.55 189 1.55
 482  0.000  0.917  0.292- 198 1.55 102 1.55 150 1.55 190 1.55
 483  0.000  0.917  0.792- 199 1.55 103 1.55 151 1.55 191 1.55
 484  0.167  0.167  0.292- 152 1.54 104 1.55 200 1.55 144 1.55
 485  0.167  0.167  0.792- 201 1.55 145 1.55 105 1.55 153 1.55
 486  0.166  0.417  0.291- 154 1.54 146 1.55 202 1.55 106 1.55
 487  0.167  0.417  0.792- 203 1.55 147 1.55 107 1.55 155 1.55
 488  0.167  0.667  0.292- 204 1.55 148 1.55 108 1.55 156 1.55
 489  0.167  0.667  0.792- 109 1.55 205 1.55 157 1.55 149 1.55
 490  0.167  0.917  0.292- 206 1.55 150 1.55 158 1.55 110 1.55
 491  0.167  0.917  0.792- 151 1.55 207 1.55 111 1.55 159 1.55
 492  0.333  0.167  0.292- 112 1.55 208 1.55 160 1.55 152 1.55
 493  0.333  0.167  0.792- 209 1.55 153 1.55 161 1.55 113 1.55
 494  0.333  0.416  0.290- 210 1.54 162 1.54 114 1.55 154 1.55
 495  0.333  0.417  0.791- 115 1.55 155 1.55 163 1.55 211 1.55
 496  0.333  0.667  0.292- 212 1.54 156 1.55 164 1.55 116 1.55
 497  0.333  0.667  0.792- 157 1.54 165 1.55 117 1.55 213 1.55
 498  0.333  0.917  0.292- 118 1.55 214 1.55 158 1.55 166 1.55
 499  0.333  0.917  0.792- 159 1.55 215 1.55 167 1.55 119 1.55
 500  0.500  0.167  0.292- 120 1.55 216 1.55 160 1.55 168 1.55
 501  0.500  0.167  0.791- 161 1.55 217 1.55 169 1.55 121 1.55
 502  0.500  0.417  0.293- 122 1.54 170 1.55 218 1.55 162 1.56
 503  0.500  0.417  0.792- 123 1.54 163 1.55 171 1.55 219 1.57
 504  0.500  0.667  0.292- 220 1.54 164 1.55 172 1.55 124 1.57
 505  0.500  0.667  0.792- 125 1.55 165 1.55 173 1.55 221 1.55
 506  0.500  0.917  0.292- 222 1.55 126 1.55 166 1.55 174 1.55
 507  0.500  0.917  0.792- 223 1.55 167 1.55 175 1.55 127 1.55
 508  0.667  0.167  0.292- 128 1.55 224 1.55 176 1.55 168 1.55
 509  0.667  0.167  0.792- 225 1.55 177 1.55 169 1.55 129 1.55
 510  0.667  0.416  0.290- 226 1.54 170 1.54 130 1.55 178 1.55
 511  0.667  0.417  0.791- 131 1.55 179 1.55 171 1.55 227 1.55
 512  0.667  0.667  0.292- 228 1.55 172 1.55 180 1.55 132 1.55
 513  0.667  0.667  0.792- 181 1.54 173 1.55 133 1.55 229 1.55
 514  0.667  0.917  0.292- 134 1.55 230 1.55 182 1.55 174 1.55
 515  0.667  0.917  0.792- 183 1.55 231 1.55 175 1.55 135 1.55
 516  0.833  0.167  0.292- 176 1.55 136 1.55 184 1.55 232 1.55
 517  0.833  0.167  0.792- 233 1.55 185 1.55 137 1.55 177 1.55
 518  0.833  0.417  0.291- 178 1.54 234 1.55 186 1.55 138 1.55
 519  0.833  0.417  0.792- 235 1.55 187 1.55 139 1.55 179 1.55
 520  0.833  0.667  0.292- 236 1.55 188 1.55 140 1.55 180 1.55
 521  0.833  0.667  0.792- 189 1.55 237 1.55 141 1.55 181 1.55
 522  0.833  0.917  0.292- 190 1.55 238 1.55 142 1.55 182 1.55
 523  0.833  0.917  0.792- 191 1.55 239 1.55 143 1.55 183 1.55
 524  0.083  0.042  0.292- 104 1.55 150 1.55 240 1.55  96 1.55
 525  0.083  0.042  0.792- 241 1.55 105 1.55 151 1.55  97 1.55
 526  0.083  0.292  0.291- 106 1.54  98 1.55 242 1.55 144 1.55
 527  0.083  0.292  0.792- 243 1.55 107 1.55  99 1.55 145 1.55
 528  0.083  0.542  0.292- 244 1.55 100 1.55 146 1.55 108 1.55
 529  0.083  0.542  0.792- 245 1.55 109 1.55 147 1.55 101 1.55
 530  0.083  0.792  0.292- 246 1.55 110 1.55 102 1.55 148 1.55
 531  0.083  0.792  0.792- 247 1.55 111 1.55 149 1.55 103 1.55
 532  0.250  0.042  0.292- 158 1.55 248 1.55 112 1.55 104 1.55
 533  0.250  0.042  0.792- 249 1.55 105 1.55 113 1.55 159 1.55
 534  0.250  0.291  0.291- 114 1.54 250 1.55 152 1.55 106 1.55
 535  0.250  0.292  0.791- 251 1.55 107 1.55 153 1.55 115 1.55
 536  0.250  0.542  0.292- 252 1.55 108 1.55 154 1.55 116 1.55
 537  0.250  0.542  0.791- 155 1.55 117 1.55 109 1.55 253 1.55
 538  0.250  0.792  0.292- 254 1.55 110 1.55 118 1.55 156 1.55
 539  0.250  0.792  0.792- 111 1.55 255 1.55 157 1.55 119 1.55
 540  0.417  0.042  0.292- 166 1.55 112 1.55 256 1.55 120 1.55
 541  0.417  0.042  0.792- 113 1.55 257 1.55 121 1.55 167 1.55
 542  0.417  0.291  0.291- 258 1.54 160 1.55 114 1.55 122 1.55
 543  0.417  0.292  0.791- 115 1.55 123 1.55 161 1.55 259 1.55
 544  0.417  0.541  0.294- 116 1.54 124 1.55 162 1.56 260 1.56
 545  0.416  0.542  0.793- 117 1.54 163 1.55 125 1.55 261 1.55
 546  0.417  0.792  0.292- 262 1.55 118 1.55 126 1.55 164 1.55
 547  0.417  0.792  0.792- 119 1.55 263 1.55 127 1.55 165 1.55
 548  0.583  0.042  0.292- 174 1.55 264 1.55 128 1.55 120 1.55
 549  0.583  0.042  0.792- 265 1.55 129 1.55 121 1.55 175 1.55
 550  0.583  0.292  0.292- 266 1.54 168 1.54 130 1.55 122 1.55
 551  0.583  0.292  0.791- 131 1.55 123 1.55 169 1.55 267 1.55
 552  0.583  0.541  0.293- 132 1.54 170 1.55 268 1.55 124 1.55
 553  0.584  0.542  0.793- 133 1.54 171 1.55 125 1.55 269 1.55
 554  0.583  0.792  0.292- 270 1.55 126 1.55 134 1.55 172 1.55
 555  0.583  0.792  0.792- 135 1.55 271 1.55 173 1.55 127 1.55
 556  0.750  0.042  0.292- 182 1.55 272 1.55 136 1.55 128 1.55
 557  0.750  0.042  0.792- 273 1.55 137 1.55 183 1.55 129 1.55
 558  0.750  0.291  0.291- 130 1.54 274 1.55 176 1.55 138 1.55
 559  0.750  0.292  0.792- 275 1.55 139 1.55 177 1.55 131 1.55
 560  0.750  0.542  0.292- 276 1.55 140 1.55 178 1.55 132 1.55
 561  0.750  0.542  0.792- 141 1.55 179 1.55 133 1.55 277 1.55
 562  0.750  0.792  0.292- 278 1.55 142 1.55 134 1.55 180 1.55
 563  0.750  0.792  0.792- 143 1.55 279 1.55 181 1.55 135 1.55
 564  0.917  0.042  0.292- 136 1.55 190 1.55  96 1.55 280 1.55
 565  0.917  0.042  0.792- 281 1.55 191 1.55  97 1.55 137 1.55
 566  0.917  0.292  0.292- 138 1.55  98 1.55 282 1.55 184 1.55
 567  0.917  0.292  0.792- 283 1.55 139 1.55 185 1.55  99 1.55
 568  0.917  0.542  0.292- 284 1.55 100 1.55 186 1.55 140 1.55
 569  0.917  0.542  0.792- 285 1.55 101 1.55 187 1.55 141 1.55
 570  0.917  0.792  0.292- 286 1.55 102 1.55 188 1.55 142 1.55
 571  0.917  0.792  0.792- 287 1.55 103 1.55 189 1.55 143 1.55
 572  0.589  0.455  0.455- 573 1.09 170 1.52  75 1.52  37 1.52
 573  0.531  0.486  0.486- 572 1.09
 574  0.500  0.502  0.633- 261 1.49 269 1.49 219 1.51
 575  0.500  0.590  0.458-  69 1.49  77 1.49 124 1.51
 576  0.409  0.454  0.454-  67 1.48 162 1.48  22 1.48
 
  LATTYP: Found a simple monoclinic cell.
 ALAT       =    12.3703241348
 B/A-ratio  =     1.2248453018
 C/A-ratio  =     1.4141600350
 COS(beta)  =    -0.0000282295
  
  Lattice vectors:
  
 A1 = (   0.0000000000,  -0.0003492082,  12.3703241299)
 A2 = (  15.1517333984,   0.0000000000,   0.0000000000)
 A3 = (   0.0000000000,  17.4936180115,   0.0000000000)


Analysis of symmetry for initial positions (statically):
=====================================================================
 Subroutine PRICEL returns:
 Original cell was already a primitive cell.
 

 Routine SETGRP: Setting up the symmetry group for a 
 simple monoclinic supercell.


 Subroutine GETGRP returns: Found  1 space group operations
 (whereof  1 operations were pure point group operations)
 out of a pool of  4 trial point group operations.


The static configuration has the point symmetry C_1 .


Analysis of symmetry for dynamics (positions and initial velocities):
=====================================================================
 Subroutine PRICEL returns:
 Original cell was already a primitive cell.
 

 Routine SETGRP: Setting up the symmetry group for a 
 simple monoclinic supercell.


 Subroutine GETGRP returns: Found  1 space group operations
 (whereof  1 operations were pure point group operations)
 out of a pool of  4 trial point group operations.


The dynamic configuration has the point symmetry C_1 .


Analysis of structural, dynamic, and magnetic symmetry:
=====================================================================
 Subroutine PRICEL returns:
 Original cell was already a primitive cell.
 

 Routine SETGRP: Setting up the symmetry group for a 
 simple monoclinic supercell.


 Subroutine GETGRP returns: Found  1 space group operations
 (whereof  1 operations were pure point group operations)
 out of a pool of  4 trial point group operations.


The overall configuration has the point symmetry C_1 .


 Subroutine INISYM returns: Found  1 space group operations
 (whereof  1 operations are pure point group operations),
 and found     1 'primitive' translations


----------------------------------------------------------------------------------------

                                     Primitive cell                                     

  volume of cell :    3278.8612

  direct lattice vectors                    reciprocal lattice vectors
    15.151733398  0.000000000  0.000000000     0.065999049  0.000000000  0.000000000
     0.000000000 17.493618012  0.000000000     0.000000000  0.057163704  0.000001614
     0.000000000 -0.000349208 12.370324130     0.000000000  0.000000000  0.080838626

  length of vectors
    15.151733398 17.493618012 12.370324135     0.065999049  0.057163704  0.080838626

  position of ions in fractional coordinates (direct lattice)
     0.000011622  0.999971569  0.000001786
     0.000015301  0.999932441  0.500019778
     0.999996780  0.249971813  0.999887761
     0.999993281  0.249913402  0.499928481
     0.000032013  0.499992838  0.999929674
     0.000074614  0.499929030  0.499923450
     0.000027442  0.749977503  0.000037425
     0.000057171  0.749949250  0.500040247
     0.166671699  0.999987379  0.000003976
     0.166595660  0.999977935  0.500015841
     0.166640265  0.249966428  0.999818247
     0.166507832  0.249819392  0.499888533
     0.166701254  0.499982813  0.999940308
     0.166283598  0.499822996  0.499862184
     0.166679976  0.749986068  0.000111354
     0.166790292  0.749800707  0.500056956
     0.333349963  0.000032643  0.999977059
     0.333315315  0.000047378  0.500009457
     0.333337890  0.250032358  0.999831231
     0.332912136  0.249547959  0.499759149
     0.333359664  0.500027469  0.000254464
     0.333734743  0.498169509  0.498203102
     0.333343150  0.749971025  0.000221790
     0.333193212  0.750472720  0.500099790
     0.499993478  0.000039323  0.999964125
     0.499998991  0.000068396  0.499998518
     0.499997177  0.250034335  0.999973919
     0.499647993  0.250512160  0.499769543
     0.499986961  0.500017597  0.000348666
     0.500002704  0.750032110  0.000156277
     0.500032039  0.750168692  0.500235607
     0.666648163  0.000027560  0.999990435
     0.666661953  0.000095135  0.500006932
     0.666663083  0.250035977  0.999919620
     0.667056471  0.249598016  0.499799753
     0.666685039  0.500049586  0.000257163
     0.667888861  0.499302743  0.499362486
     0.666683054  0.750001622  0.000200419
     0.666908778  0.750544827  0.500114433
     0.833344809  0.999990890  0.000011952
     0.833416907  0.000006237  0.500017836
     0.833377081  0.249967896  0.999865377
     0.833444709  0.249865092  0.499933963
     0.833370035  0.499997808  0.000014185
     0.833929497  0.499875623  0.499907350
     0.833373913  0.750000198  0.000110782
     0.833366045  0.749982379  0.500057986
     0.083330360  0.124965243  0.999911221
     0.083275662  0.124914465  0.499974944
     0.083307667  0.374969137  0.999795837
     0.083208410  0.374881916  0.499873295
     0.083390548  0.624974986  0.999982406
     0.083468000  0.624934860  0.500000303
     0.083339419  0.874979184  0.000037596
     0.083367249  0.874911545  0.500031196
     0.250001722  0.125007286  0.999892392
     0.249851457  0.124845741  0.499929727
     0.249911343  0.374943142  0.999701692
     0.249537248  0.374660543  0.499820654
     0.249956422  0.625017590  0.000378329
     0.250619338  0.624371706  0.500053315
     0.250007381  0.874989808  0.000070198
     0.249933592  0.875152177  0.500034340
     0.416678400  0.125070834  0.999844144
     0.416656614  0.125047984  0.499913006
     0.416691978  0.375023833  0.000027273
     0.414892640  0.375785360  0.497879818
     0.416662475  0.624920986  0.000622916
     0.417649589  0.625136709  0.500205590
     0.416670587  0.875021161  0.000048361
     0.416644526  0.875123367  0.500070074
     0.583331732  0.125054289  0.999912609
     0.583228086  0.125152440  0.499927084
     0.583225533  0.375058753  0.000162842
     0.584595745  0.374466503  0.499041250
     0.583386567  0.625010920  0.000510916
     0.582637971  0.625203303  0.500264076
     0.583325673  0.875022251  0.000049591
     0.583370871  0.875146204  0.500064852
     0.750004547  0.125002560  0.999930150
     0.750133432  0.124870505  0.499948986
     0.750110676  0.374949541  0.999756882
     0.750341429  0.374789357  0.499873724
     0.750122150  0.625044383  0.000406390
     0.749737215  0.624893760  0.500055002
     0.750006376  0.875003225  0.000067579
     0.750114429  0.875206431  0.500035593
     0.916684426  0.124969361  0.999931969
     0.916726815  0.124926884  0.499978034
     0.916709636  0.374969995  0.999829197
     0.916775543  0.374913446  0.499913951
     0.916718787  0.624991677  0.000044670
     0.916710147  0.624983221  0.500007967
     0.916694070  0.874982313  0.000044106
     0.916718237  0.874964097  0.500030545
     0.999996055  0.083242389  0.333316776
     0.000012102  0.083326086  0.833312083
     0.999976312  0.333237141  0.333224424
     0.000020380  0.333324115  0.833219481
     0.000043614  0.583277849  0.333320736
     0.000067741  0.583319919  0.833307748
     0.000030662  0.833276700  0.333383320
     0.000027927  0.833307836  0.833360396
     0.166612276  0.083218318  0.333272980
     0.166691666  0.083351306  0.833297503
     0.166490045  0.333152284  0.333117441
     0.166693598  0.333347889  0.833130468
     0.166737051  0.583226575  0.333382358
     0.166829862  0.583269183  0.833137004
     0.166722254  0.833259565  0.333387067
     0.166685927  0.833334002  0.833388832
     0.333281739  0.083282676  0.333260237
     0.333346406  0.083423564  0.833249817
     0.332889319  0.332828512  0.332836011
     0.333400791  0.333501754  0.833039135
     0.333559322  0.583081127  0.333812594
     0.333205232  0.583510746  0.834096765
     0.333321367  0.833378563  0.333418348
     0.333329053  0.833364573  0.833423644
     0.499995192  0.083320882  0.333293199
     0.499993727  0.083455702  0.833259137
     0.499982186  0.333234041  0.333248662
     0.500007337  0.333508897  0.833372906
     0.500063315  0.582861313  0.336373785
     0.500044277  0.583514060  0.833733882
     0.500013595  0.833313569  0.333457159
     0.500003589  0.833391974  0.833404583
     0.666702849  0.083328057  0.333285926
     0.666660831  0.083412184  0.833274925
     0.667006203  0.332965858  0.332984014
     0.666609951  0.333494217  0.833178409
     0.666549079  0.583145004  0.333834337
     0.666926169  0.583554406  0.834142901
     0.666714336  0.833392749  0.333416953
     0.666693069  0.833384234  0.833419387
     0.833400623  0.083252232  0.333289305
     0.833330770  0.083347643  0.833298255
     0.833418565  0.333213038  0.333194839
     0.833344835  0.333347493  0.833159101
     0.833341550  0.583279313  0.333420363
     0.833351240  0.583336183  0.833349219
     0.833347014  0.833310469  0.333383587
     0.833361718  0.833356938  0.833397329
     0.083283957  0.208208926  0.333230718
     0.083360543  0.208334828  0.833247415
     0.083231140  0.458225844  0.333190234
     0.083398228  0.458335584  0.833226524
     0.083401749  0.708274097  0.333422749
     0.083413719  0.708288356  0.833324392
     0.083349010  0.958253623  0.333356137
     0.083363498  0.958329701  0.833370411
     0.249818580  0.208107611  0.333170191
     0.250035679  0.208403485  0.833217639
     0.249525413  0.458086296  0.332987708
     0.250157060  0.458373823  0.833177254
     0.250121611  0.708195765  0.333526906
     0.250048243  0.708362822  0.833476495
     0.249984372  0.958326268  0.333368846
     0.250003983  0.958366255  0.833390122
     0.416585911  0.208237793  0.333201063
     0.416664990  0.208567450  0.832982203
     0.414879370  0.457174314  0.335044517
     0.416684872  0.458537480  0.833347393
     0.416656831  0.708314235  0.333719548
     0.416678080  0.708348921  0.833590743
     0.416648920  0.958341747  0.333349988
     0.416648539  0.958392938  0.833337561
     0.583343454  0.208302220  0.333244037
     0.583337753  0.208512866  0.833165048
     0.584622135  0.457490143  0.332952647
     0.583372256  0.458543113  0.833360825
     0.583402712  0.708303834  0.333732228
     0.583372954  0.708390146  0.833569440
     0.583359617  0.958351545  0.333355090
     0.583344190  0.958403030  0.833332808
     0.750142563  0.208160356  0.333240327
     0.749990741  0.208397374  0.833263655
     0.750357095  0.458164045  0.333143042
     0.749961386  0.458407291  0.833296782
     0.749976129  0.708289529  0.333521902
     0.750043635  0.708403282  0.833505043
     0.750031585  0.958352159  0.333368549
     0.750004581  0.958374260  0.833388474
     0.916686527  0.208238950  0.333258877
     0.916666850  0.208328869  0.833257523
     0.916767289  0.458257467  0.333232926
     0.916669039  0.458341237  0.833273822
     0.916682443  0.708297545  0.333424197
     0.916679403  0.708315739  0.833367581
     0.916677765  0.958273562  0.333355234
     0.916673385  0.958329870  0.833370097
     0.999996021  0.166592971  0.166572457
     0.000011284  0.166645984  0.666625126
     0.999997872  0.416601486  0.166501031
     0.000032250  0.416642509  0.666576098
     0.000043575  0.666643247  0.166699542
     0.000066453  0.666626537  0.666655140
     0.000013354  0.916618973  0.166689232
     0.000028561  0.916637616  0.666688391
     0.166602835  0.166570836  0.166525292
     0.166658990  0.166671564  0.666613486
     0.166502372  0.416555179  0.166407263
     0.166735717  0.416661700  0.666527205
     0.166694061  0.666627726  0.166860852
     0.166880830  0.666545950  0.666594552
     0.166680325  0.916630520  0.166699230
     0.166671487  0.916683991  0.666720018
     0.333293550  0.166615308  0.166536140
     0.333357053  0.166807203  0.666563499
     0.332909493  0.416363766  0.166157439
     0.333589615  0.416888898  0.666225711
     0.333379722  0.666555129  0.167100767
     0.333618800  0.666681808  0.666769489
     0.333341245  0.916679927  0.166690394
     0.333333278  0.916740967  0.666719443
     0.499995536  0.166641360  0.166595704
     0.499962557  0.166952891  0.666467548
     0.499656340  0.416711291  0.167408292
     0.500060292  0.418544063  0.665106725
     0.500019041  0.666747453  0.166988807
     0.500068337  0.666705936  0.666785500
     0.499998510  0.916675263  0.166692532
     0.500003630  0.916754608  0.666684719
     0.666694163  0.166645621  0.166596509
     0.666646629  0.166807814  0.666606643
     0.667070683  0.416398426  0.166215034
     0.666519064  0.416920428  0.666324133
     0.666666902  0.666615742  0.167057306
     0.666545724  0.666772469  0.666836756
     0.666663706  0.916681184  0.166694902
     0.666680481  0.916771722  0.666712251
     0.833402636  0.166596811  0.166569281
     0.833359131  0.166681551  0.666625143
     0.833456069  0.416585296  0.166477381
     0.833332653  0.416695482  0.666582060
     0.833382923  0.666655133  0.166867405
     0.833278044  0.666640845  0.666676242
     0.833348548  0.916645432  0.166702440
     0.833377897  0.916710768  0.666720820
     0.083342176  0.041597314  0.166624751
     0.083345775  0.041648613  0.666675299
     0.083286532  0.291583565  0.166471535
     0.083342101  0.291643199  0.666553626
     0.083356543  0.541630577  0.166626559
     0.083480337  0.541632318  0.666609949
     0.083368087  0.791632945  0.166720379
     0.083400828  0.791606177  0.666673345
     0.249989830  0.041636252  0.166589733
     0.249995885  0.041716054  0.666643348
     0.249836683  0.291499848  0.166367309
     0.250013550  0.291724450  0.666485530
     0.250000069  0.541586574  0.166803138
     0.250631199  0.541459377  0.665903952
     0.250034737  0.791616257  0.166783483
     0.250036208  0.791708053  0.666732747
     0.416653282  0.041673775  0.166592648
     0.416660173  0.041773606  0.666623038
     0.416604844  0.291580596  0.166557036
     0.416718297  0.292361416  0.665685994
     0.416713973  0.541274428  0.167915189
     0.417661179  0.541818182  0.666912735
     0.416668297  0.791672478  0.166792160
     0.416680361  0.791732731  0.666773399
     0.583350980  0.041672927  0.166619088
     0.583321934  0.041799801  0.666615441
     0.583337632  0.291616897  0.166641181
     0.583232829  0.292207431  0.666302490
     0.583261301  0.541614876  0.167522206
     0.582636435  0.541874304  0.666975841
     0.583345496  0.791671590  0.166795159
     0.583359617  0.791759785  0.666775322
     0.750017002  0.041649841  0.166607556
     0.750017372  0.041726149  0.666645262
     0.750129560  0.291545747  0.166443154
     0.749986090  0.291744432  0.666529971
     0.750033859  0.541625890  0.166834971
     0.749734423  0.541641723  0.666567878
     0.750011002  0.791644890  0.166770307
     0.750045733  0.791765402  0.666748995
     0.916675431  0.041613627  0.166633051
     0.916686259  0.041659827  0.666673740
     0.916681763  0.291604933  0.166516897
     0.916673304  0.291654858  0.666558986
     0.916691405  0.541637489  0.166655927
     0.916689569  0.541653726  0.666658814
     0.916682905  0.791640702  0.166721491
     0.916688524  0.791648598  0.666688069
     0.000008733  0.999942191  0.124973207
     0.000016768  0.999967331  0.625014646
     0.999986580  0.249944855  0.124855504
     0.000004456  0.249970961  0.624901947
     0.000017282  0.499985719  0.124909962
     0.000076364  0.499998732  0.624947287
     0.000026897  0.749988397  0.125024354
     0.000047714  0.749975919  0.625012938
     0.166664706  0.999954391  0.124958764
     0.166644573  0.000006613  0.625005502
     0.166590554  0.249896133  0.124762195
     0.166647741  0.249980283  0.624885680
     0.166649416  0.499963089  0.124915769
     0.166806399  0.499966011  0.624810817
     0.166681119  0.749971752  0.125088433
     0.166755253  0.749927524  0.625005146
     0.333340291  0.999999758  0.124936746
     0.333327337  0.000070187  0.624997721
     0.333298339  0.249939520  0.124797276
     0.333327834  0.250134710  0.624706369
     0.333320937  0.499875283  0.125232067
     0.334602035  0.499653847  0.624013337
     0.333358731  0.749934699  0.125178052
     0.333302060  0.750114879  0.625104475
     0.499998953  0.000005927  0.124948104
     0.499995100  0.000072439  0.624983554
     0.499984628  0.249957200  0.124912326
     0.499943403  0.250420097  0.624632920
     0.499953658  0.499940242  0.125621189
     0.499997214  0.750017316  0.125041631
     0.500026684  0.750078905  0.625175335
     0.666660971  0.999997208  0.124953279
     0.666664526  0.000096502  0.624991214
     0.666684363  0.249971888  0.124868602
     0.666628776  0.250121325  0.624834020
     0.666670407  0.499952713  0.125181342
     0.666314030  0.500007535  0.624574021
     0.666673419  0.749964842  0.125162377
     0.666779809  0.750175964  0.625130241
     0.833352546  0.999966592  0.124971684
     0.833382140  0.000023062  0.625005278
     0.833395843  0.249916499  0.124800751
     0.833347211  0.249993573  0.624911300
     0.833377210  0.499980121  0.124960599
     0.833370460  0.500038560  0.624957911
     0.833373869  0.749988574  0.125078278
     0.833358506  0.750008754  0.625030481
     0.083315332  0.124919510  0.124881300
     0.083321012  0.124965243  0.624972519
     0.083260820  0.374939703  0.124739346
     0.083344709  0.374978888  0.624877580
     0.083378039  0.624985201  0.125012588
     0.083453813  0.624966042  0.624971263
     0.083342153  0.874964518  0.125017671
     0.083364570  0.874959690  0.625020756
     0.249969241  0.124957340  0.124861278
     0.249986978  0.125036820  0.624934485
     0.249763977  0.374839285  0.124499268
     0.250008878  0.375020366  0.624804233
     0.249978728  0.624974925  0.125259960
     0.250364451  0.624858743  0.624892841
     0.250015902  0.874975514  0.125049389
     0.249972888  0.875065917  0.625046291
     0.416667092  0.124997224  0.124862433
     0.416677450  0.125132096  0.624895394
     0.416554996  0.374926654  0.124982291
     0.416765793  0.376284818  0.623606060
     0.416725076  0.624844285  0.125749583
     0.416783226  0.625112300  0.625174958
     0.416666616  0.874996872  0.125023095
     0.416665087  0.875072433  0.625070826
     0.583341021  0.124991299  0.124904807
     0.583280401  0.125174939  0.624897372
     0.583259541  0.374982703  0.125229865
     0.583279726  0.375661828  0.624127079
     0.583306066  0.624963837  0.125461470
     0.583387086  0.625175836  0.625237322
     0.583329781  0.874994774  0.125025815
     0.583354648  0.875089774  0.625070677
     0.750029652  0.124973377  0.124906247
     0.750019141  0.125038056  0.624957430
     0.750185002  0.374868118  0.124510933
     0.749997682  0.375062949  0.624850020
     0.750074328  0.625009477  0.125266386
     0.749862756  0.625020501  0.625029435
     0.750007109  0.874990009  0.125040659
     0.750069887  0.875105712  0.625050306
     0.916696292  0.124930308  0.124900625
     0.916697988  0.124975271  0.624971519
     0.916714297  0.374952514  0.124781479
     0.916695167  0.374997186  0.624909996
     0.916716462  0.624997669  0.125037121
     0.916698079  0.625001304  0.624999551
     0.916693334  0.874967314  0.125022222
     0.916707078  0.874988553  0.625026123
     0.000008874  0.083238693  0.458334644
     0.000006491  0.083303733  0.958277005
     0.999983939  0.333246059  0.458256863
     0.000005439  0.333312410  0.958178970
     0.000084673  0.583305591  0.458319531
     0.000052239  0.583343268  0.958301201
     0.000041218  0.833280126  0.458373580
     0.000021036  0.833314082  0.958354885
     0.166564717  0.083212025  0.458305761
     0.166678046  0.083320060  0.958258383
     0.166398179  0.333114813  0.458171078
     0.166632246  0.333312215  0.958036343
     0.166816756  0.583180157  0.458349396
     0.166755492  0.583316035  0.958278102
     0.166729961  0.833246729  0.458370256
     0.166666409  0.833322005  0.958375449
     0.333286860  0.083319478  0.458272888
     0.333349485  0.083374749  0.958225116
     0.332553947  0.332309547  0.457947087
     0.333361926  0.333378303  0.958109553
     0.334563846  0.582534894  0.458232298
     0.333166031  0.583446329  0.958855861
     0.333127048  0.833598496  0.458444535
     0.333332406  0.833324476  0.958410324
     0.499977985  0.083367780  0.458302948
     0.500000288  0.083387951  0.958244439
     0.499908644  0.334195164  0.457657241
     0.499981762  0.333319845  0.958342024
     0.500021600  0.583400614  0.958735147
     0.500015951  0.833431910  0.458488405
     0.499996624  0.833353970  0.958361455
     0.666662476  0.083390417  0.458284064
     0.666653786  0.083361752  0.958253640
     0.667184651  0.332339343  0.458167855
     0.666624619  0.333390363  0.958237023
     0.666314726  0.583012682  0.458516351
     0.666899061  0.583481015  0.958848336
     0.666911102  0.833644069  0.458447767
     0.666681970  0.833340161  0.958404914
     0.833431296  0.083230436  0.458312929
     0.833336284  0.083319704  0.958271000
     0.833496097  0.333185943  0.458249804
     0.833388117  0.333308386  0.958068040
     0.833380210  0.583317757  0.458395676
     0.833384313  0.583356175  0.958395538
     0.833385742  0.833353459  0.458374562
     0.833365573  0.833335818  0.958381931
     0.083266693  0.208208538  0.458263824
     0.083341202  0.208306439  0.958204672
     0.083167090  0.458268965  0.458236952
     0.083373986  0.458340718  0.958206770
     0.083409736  0.708275364  0.458393960
     0.083388315  0.708318398  0.958339131
     0.083347374  0.958250746  0.458356230
     0.083355588  0.958313625  0.958342799
     0.249752140  0.207998475  0.458213386
     0.250017117  0.208350082  0.958182335
     0.248969750  0.458105198  0.458126667
     0.250058270  0.458356103  0.958254798
     0.250264922  0.708112047  0.458434106
     0.249990483  0.708337545  0.958504401
     0.249921451  0.958398960  0.458378283
     0.250007238  0.958341431  0.958367999
     0.416533162  0.208322160  0.458178783
     0.416671082  0.208443750  0.958097094
     0.416664530  0.458373728  0.958423842
     0.416003903  0.709008267  0.458848718
     0.416655814  0.708300253  0.958633294
     0.416637085  0.958386461  0.458364594
     0.416654211  0.958359297  0.958316101
     0.583269591  0.208503623  0.458187492
     0.583337407  0.208401286  0.958204774
     0.583342977  0.458379501  0.958471580
     0.584058866  0.709020167  0.458861243
     0.583368968  0.708346644  0.958564140
     0.583357371  0.958405335  0.458364746
     0.583334357  0.958362072  0.958315317
     0.750185526  0.208002489  0.458283270
     0.750003410  0.208349796  0.958233995
     0.751151353  0.458344615  0.458361287
[...]
 196      -0.006     0.001     0.006       1.065
 197       0.007     0.005    -0.009       0.218
 198      -0.001    -0.001     0.002       0.261
 199      -0.002    -0.001     0.003       0.194
 200       0.001     0.001    -0.002       0.124
 201       0.003     0.001    -0.006       0.400
 202      -0.006    -0.000     0.007       0.925
 203      -0.014     0.011     0.014       1.811
 204       0.005    -0.003    -0.011       0.721
 205       0.010    -0.010     0.014      -1.472
 206       0.001     0.000    -0.004       0.127
 207       0.001    -0.001    -0.007       0.289
 208      -0.004     0.001     0.005       1.104
 209       0.008    -0.006     0.009      -1.564
 210      -0.007     0.001    -0.032      -0.258
 211       0.089     0.001     0.101      -0.865
 212       0.016    -0.013     0.023      -1.258
 213       0.085     0.056     0.108      -0.264
 214      -0.004     0.003     0.006       1.197
 215       0.006     0.005    -0.008       0.154
 216      -0.014    -0.007    -0.024      -0.320
 217      -0.003     0.001    -0.026      -0.155
 218       0.017     0.008    -0.036       0.250
 219       0.414    -0.129     0.447      -1.216
 220      -0.539    -0.538    -0.790      -0.002
 221       0.136     0.052     0.172      -0.490
 222      -0.008     0.002     0.008       1.225
 223       0.009     0.003    -0.011       0.509
 224      -0.004     0.001     0.005       1.040
 225       0.009    -0.005     0.010      -1.437
 226      -0.024    -0.015    -0.055      -0.163
 227       0.088    -0.001     0.100      -0.888
 228       0.016    -0.013     0.023      -1.280
 229       0.084     0.056     0.108      -0.260
 230      -0.004     0.003     0.007       1.191
 231       0.006     0.005    -0.008       0.161
 232       0.001     0.001    -0.002       0.115
 233       0.003     0.001    -0.005       0.396
 234      -0.006     0.000     0.007       0.897
 235       0.013     0.011    -0.014       0.153
 236      -0.004     0.004    -0.013      -0.621
 237       0.011    -0.010     0.014      -1.448
 238       0.001     0.001    -0.004       0.126
 239       0.001    -0.000    -0.006       0.298
 240       0.002    -0.000    -0.002       0.966
 241      -0.003    -0.001     0.003       0.789
 242       0.002     0.001    -0.003       0.497
 243       0.005     0.003    -0.006       0.349
 244      -0.006     0.002     0.009       0.809
 245      -0.005    -0.001    -0.024      -0.170
 246       0.002     0.000    -0.005       0.307
 247       0.004     0.003    -0.005       0.267
 248       0.003     0.002    -0.003       0.275
 249       0.003     0.001    -0.006       0.254
 250       0.004    -0.000    -0.005       0.842
 251      -0.011     0.011     0.012       1.838
 252      -0.010     0.008     0.017       1.048
 253       0.027     0.018    -0.034       0.268
 254      -0.006    -0.002    -0.016      -0.224
 255       0.004     0.002    -0.017       0.145
 256      -0.005     0.002     0.006       1.257
 257       0.003     0.001    -0.011       0.190
 258      -0.008     0.001     0.010       0.915
 259       0.057     0.017     0.066      -0.595
 260       0.057     0.010     0.062      -0.771
 261       1.165     0.937     1.228      -0.186
 262       0.018    -0.000     0.025      -0.709
 263       0.018    -0.013     0.025      -1.224
 264      -0.005     0.002     0.006       1.263
 265       0.003     0.001    -0.011       0.189
 266       0.008    -0.001    -0.009       0.988
 267       0.058     0.020     0.069      -0.566
 268       0.063     0.015     0.069      -0.704
 269       1.080     0.848     1.146      -0.202
 270       0.018    -0.000     0.025      -0.709
 271       0.019    -0.012     0.026      -1.176
 272       0.003     0.002    -0.003       0.288
 273       0.003     0.001    -0.006       0.249
 274       0.005     0.000    -0.005       0.942
 275      -0.011     0.011     0.012       1.820
 276      -0.010     0.008     0.017       1.078
 277       0.026     0.016    -0.036       0.265
 278      -0.006    -0.002    -0.016      -0.230
 279       0.005     0.003    -0.016       0.163
 280       0.002     0.000    -0.002       0.951
 281      -0.003    -0.000     0.003       0.758
 282       0.002     0.001    -0.003       0.500
 283       0.005     0.003    -0.006       0.331
 284      -0.006     0.001     0.009       0.818
 285      -0.005    -0.001    -0.024      -0.171
 286       0.002     0.000    -0.005       0.319
 287       0.004     0.003    -0.005       0.266
 288      -0.002    -0.000     0.002       0.659
 289       0.002    -0.002    -0.003       1.448
 290       0.001     0.001    -0.002       0.233
 291       0.004     0.000    -0.004       0.860
 292      -0.006     0.000     0.007       0.825
 293       0.003     0.000    -0.017       0.146
 294      -0.001     0.001    -0.006      -0.441
 295       0.004     0.003    -0.007       0.136
 296       0.002     0.001    -0.002       0.305
 297      -0.003     0.002     0.004       0.997
 298       0.002     0.000    -0.003       0.738
 299      -0.003    -0.002    -0.015      -0.102
 300       0.005    -0.005    -0.010       0.990
 301      -0.011    -0.009    -0.044      -0.049
 302      -0.004     0.002     0.004       1.314
 303       0.006     0.005    -0.012       0.079
 304       0.003     0.001    -0.006       0.419
 305       0.004     0.003    -0.009       0.133
 306      -0.004    -0.002     0.006       0.414
 307       0.007     0.006    -0.019       0.063
 308      -0.014    -0.004    -0.039      -0.244
 309      -0.576    -0.566    -0.826      -0.013
 310       0.005     0.002    -0.013       0.290
 311       0.024    -0.005     0.041      -0.722
 312       0.004    -0.001    -0.012       0.422
 313       0.002    -0.001    -0.015       0.228
 314      -0.017    -0.006    -0.033      -0.350
 315      -0.056    -0.049    -0.095      -0.068
 316       0.010     0.007    -0.073       0.044
 317      -0.156    -0.141    -0.259      -0.058
 318      -0.062    -0.004    -0.102      -0.575
 319       0.003     0.001    -0.006       0.422
 320       0.004     0.003    -0.009       0.140
 321      -0.004    -0.001     0.006       0.409
 322       0.004     0.003    -0.023       0.070
 323      -0.019    -0.009    -0.044      -0.229
 324      -0.550    -0.538    -0.798      -0.016
 325       0.005     0.002    -0.013       0.282
 326       0.025    -0.005     0.041      -0.736
 327       0.002     0.001    -0.003       0.295
 328      -0.003     0.002     0.004       1.074
 329       0.002    -0.000    -0.003       0.738
 330      -0.003    -0.001    -0.014      -0.103
 331       0.005    -0.005    -0.010       0.993
 332      -0.010    -0.008    -0.043      -0.050
 333       0.004     0.001    -0.004       0.656
 334       0.006     0.005    -0.012       0.084
 335       0.001    -0.000    -0.002       0.983
 336      -0.003    -0.001     0.003       0.753
 337       0.004    -0.001    -0.005       0.957
 338      -0.000     0.000    -0.016      -0.025
 339      -0.004     0.001     0.009       0.655
 340       0.009     0.006    -0.012       0.225
 341       0.002     0.001    -0.002       0.479
 342       0.003     0.000    -0.004       0.834
 343       0.002     0.000    -0.004       0.351
 344       0.003     0.001    -0.007       0.177
 345       0.007    -0.001    -0.007       1.054
 346      -0.068    -0.062    -0.121      -0.045
 347      -0.053    -0.040    -0.062      -0.208
 348       0.041     0.013     0.065      -0.443
 349       0.003     0.001    -0.005       0.430
 350       0.007    -0.006     0.008      -1.648
 351      -0.004     0.001    -0.010      -0.475
 352       0.007     0.005    -0.011       0.159
 353       0.013     0.006    -0.021       0.359
 354      -0.331    -0.292    -0.503      -0.076
 355      -0.053    -0.048    -0.101      -0.052
 356       0.155    -0.053    -0.233       0.893
 357      -0.005     0.001    -0.021      -0.303
 358      -0.005     0.003    -0.023      -0.338
 359      -0.003     0.002    -0.009      -0.519
 360       0.006     0.005    -0.011       0.159
 361       0.009     0.001    -0.024       0.344
 362      -0.313    -0.265    -0.478      -0.099
 363      -0.031    -0.026    -0.080      -0.057
 364       0.169    -0.038    -0.202       1.023
 365      -0.006     0.001    -0.021      -0.305
 366      -0.005     0.003    -0.024      -0.340
 367       0.002     0.000    -0.004       0.370
 368       0.003     0.001    -0.007       0.170
 369       0.006    -0.001    -0.009       0.825
 370      -0.068    -0.063    -0.123      -0.040
 371      -0.055    -0.042    -0.065      -0.203
 372       0.030     0.000     0.053      -0.556
 373       0.003     0.001    -0.005       0.423
 374       0.007     0.006    -0.007       0.152
 375       0.001    -0.000    -0.002       0.955
 376      -0.003    -0.000     0.003       0.768
 377       0.004    -0.000    -0.005       0.980
 378       0.001     0.000    -0.015       0.027
 379      -0.005     0.001     0.008       0.698
 380       0.009     0.007    -0.012       0.228
 381       0.002     0.001    -0.002       0.465
 382       0.003     0.000    -0.004       0.802
 383      -0.002    -0.001     0.003       0.457
 384      -0.002    -0.000     0.002       0.694
 385       0.002     0.001    -0.008       0.151
 386       0.002     0.000    -0.005       0.509
 387       0.003    -0.001    -0.018       0.199
 388       0.006    -0.001    -0.008       0.934
 389      -0.004     0.001     0.004       1.216
 390       0.001     0.000    -0.002       0.228
 391       0.002    -0.000    -0.006       0.435
 392       0.002     0.001    -0.003       0.285
 393       0.005     0.004    -0.013       0.027
 394       0.003    -0.002    -0.007       0.764
 395      -0.011    -0.006    -0.043      -0.100
 396       0.005    -0.005    -0.012       0.903
 397      -0.006    -0.004    -0.018      -0.109
 398      -0.002     0.001     0.003       0.973
 399       0.004     0.004    -0.008       0.089
 400       0.004     0.001    -0.005       0.497
 401       0.023     0.017    -0.025       0.224
 402       0.010     0.001    -0.010       0.895
 403      -0.614    -0.599    -0.855      -0.018
 404      -0.063    -0.051    -0.146      -0.079
 405      -0.108    -0.102    -0.181      -0.035
 406      -0.004    -0.002     0.005       0.327
 407       0.006     0.003    -0.011       0.282
 408       0.005     0.001    -0.008       0.601
 409       0.042    -0.028     0.053      -1.318
 410      -0.160    -0.149    -0.262      -0.040
 411      -0.077    -0.077    -0.187      -0.003
 412      -0.100    -0.095    -0.188      -0.022
 413      -0.028    -0.015    -0.052      -0.260
 414       0.004     0.003    -0.009       0.115
 415       0.004     0.001    -0.005       0.503
 416       0.041    -0.003     0.048      -0.919
 417      -0.009     0.003     0.011       1.067
 418      -0.587    -0.571    -0.827      -0.020
 419      -0.069    -0.058    -0.156      -0.073
 420      -0.114    -0.108    -0.189      -0.033
 421      -0.004    -0.002     0.005       0.327
 422       0.003     0.000    -0.005       0.453
 423       0.002     0.001    -0.003       0.272
 424       0.005     0.005    -0.012       0.027
 425      -0.004     0.002    -0.008      -0.679
 426      -0.009    -0.005    -0.041      -0.104
 427      -0.006     0.005    -0.012      -0.867
 428      -0.007    -0.005    -0.019      -0.109
 429      -0.002     0.001     0.003       0.983
 430       0.003    -0.000    -0.004       0.741
 431       0.001    -0.000    -0.003       0.320
 432       0.008     0.006    -0.013       0.203
 433      -0.006    -0.000     0.007       0.942
 434       0.008     0.007    -0.009       0.100
 435       0.003    -0.002    -0.006       0.780
 436       0.003    -0.001    -0.004       1.047
 437      -0.001     0.000     0.002       0.956
 438       0.007     0.006    -0.007       0.061
 439       0.003     0.001    -0.005       0.448
 440       0.013     0.007    -0.042       0.149
 441       0.011     0.002    -0.011       0.771
 442      -0.018    -0.015    -0.059      -0.041
 443       0.007     0.001     0.014      -0.399
 444      -0.010    -0.009    -0.025      -0.065
 445       0.002     0.001    -0.003       0.468
 446       0.010     0.007    -0.015       0.216
 447      -0.010    -0.004    -0.020      -0.293
 448      -0.072    -0.070    -0.165      -0.012
 449      -1.708    -1.680    -2.443      -0.012
 450      -0.024    -0.017    -0.048      -0.152
 451      -0.004    -0.002    -0.024      -0.078
 452       0.003    -0.003    -0.009       0.669
 453      -0.012     0.010     0.013       1.608
 454      -0.006    -0.000    -0.015      -0.371
 455      -0.065    -0.063    -0.159      -0.011
 456      -1.754    -1.727    -2.507      -0.011
 457      -0.021    -0.013    -0.044      -0.180
 458      -0.003    -0.001    -0.024      -0.081
 459       0.003    -0.003    -0.009       0.673
 460       0.007     0.007    -0.008       0.042
 461       0.003     0.001    -0.005       0.471
 462       0.021     0.015    -0.035       0.186
 463       0.011     0.002    -0.011       0.794
 464      -0.018    -0.016    -0.060      -0.041
 465       0.006     0.000     0.013      -0.422
 466      -0.012    -0.011    -0.028      -0.053
 467       0.003     0.001    -0.003       0.480
 468       0.003    -0.000    -0.004       0.755
 469       0.000    -0.000    -0.003       0.293
 470       0.009     0.006    -0.013       0.204
 471      -0.006    -0.000     0.007       0.935
 472       0.007     0.006    -0.009       0.090
 473       0.003    -0.002    -0.006       0.760
 474       0.002    -0.002    -0.004       0.894
 475      -0.001     0.000     0.002       0.985
 476      -0.001    -0.001     0.002       0.111
 477       0.002    -0.002    -0.002       1.756
 478       0.005     0.001    -0.008       0.448
 479       0.006     0.003    -0.008       0.396
 480      -0.007     0.003     0.007       1.437
 481       0.006     0.002    -0.007       0.485
 482      -0.002     0.001    -0.003      -1.175
 483      -0.002    -0.001     0.002       0.161
 484       0.002     0.001    -0.003       0.357
 485       0.003     0.001    -0.004       0.363
 486       0.007     0.002    -0.012       0.358
 487      -0.006    -0.001    -0.023      -0.217
 488      -0.021    -0.017    -0.038      -0.112
 489       0.008     0.003    -0.011       0.437
 490       0.003     0.001    -0.004       0.434
 491       0.002     0.001    -0.003       0.284
 492       0.004     0.001    -0.007       0.423
 493       0.004     0.002    -0.011       0.175
 494      -0.023     0.022     0.028       1.603
 495      -0.049    -0.026    -0.097      -0.240
 496      -0.048    -0.033    -0.096      -0.164
 497       0.024    -0.005     0.041      -0.705
 498      -0.002    -0.000    -0.018      -0.075
 499       0.004     0.001    -0.007       0.501
 500       0.007    -0.001    -0.009       0.899
 501       0.009     0.005    -0.012       0.376
 502       0.057    -0.020     0.069      -1.118
 503      -2.287    -2.271    -3.182      -0.005
 504      -2.147    -2.127    -3.051      -0.006
 505      -0.052     0.003    -0.102      -0.540
 506      -0.018    -0.014    -0.048      -0.082
 507      -0.014    -0.004    -0.025      -0.384
 508       0.004     0.001    -0.008       0.410
 509       0.003     0.001    -0.011       0.170
 510       0.048    -0.001     0.054      -0.899
 511      -0.050    -0.026    -0.097      -0.245
 512      -0.048    -0.032    -0.095      -0.170
 513       0.024    -0.005     0.041      -0.718
 514      -0.002    -0.000    -0.018      -0.081
 515       0.004     0.001    -0.007       0.510
 516       0.002     0.001    -0.003       0.348
 517       0.003     0.001    -0.004       0.341
 518       0.007     0.003    -0.012       0.375
 519      -0.006    -0.001    -0.024      -0.205
 520      -0.022    -0.017    -0.039      -0.113
 521       0.008     0.003    -0.011       0.441
 522       0.003     0.001    -0.004       0.424
 523       0.002     0.001    -0.003       0.274
 524      -0.002    -0.000     0.002       0.807
 525       0.002    -0.000    -0.002       1.110
 526       0.002     0.001    -0.005       0.258
 527      -0.001    -0.000    -0.009      -0.110
 528       0.003    -0.002    -0.016       0.327
 529       0.006     0.001    -0.013       0.434
 530       0.004     0.002    -0.005       0.230
 531       0.003     0.001    -0.005       0.260
 532       0.001     0.000    -0.006       0.138
 533       0.002     0.001    -0.005       0.205
 534       0.005     0.003    -0.009       0.278
 535      -0.007    -0.003    -0.023      -0.184
 536      -0.079    -0.071    -0.125      -0.060
 537      -0.023    -0.015    -0.062      -0.124
 538       0.005     0.004    -0.012       0.097
 539       0.006    -0.005     0.009      -1.160
 540      -0.003     0.000    -0.014      -0.202
 541       0.004     0.000    -0.009       0.356
 542      -0.013     0.007     0.014       1.386
 543      -0.008    -0.004    -0.048      -0.091
 544      -0.422    -0.364    -0.561      -0.103
 545      -1.780    -1.751    -2.526      -0.011
 546      -0.087    -0.082    -0.168      -0.027
 547      -0.012    -0.005     0.014       0.455
 548      -0.003    -0.000    -0.015      -0.203
 549       0.004     0.000    -0.009       0.363
 550      -0.014     0.007     0.015       1.406
 551       0.010     0.004    -0.034       0.162
 552      -0.400    -0.333    -0.532      -0.127
 553      -1.826    -1.798    -2.591      -0.011
 554      -0.086    -0.081    -0.167      -0.029
 555      -0.012    -0.006     0.015       0.413
 556       0.001     0.001    -0.006       0.136
 557       0.002     0.001    -0.005       0.199
 558       0.006     0.004    -0.008       0.326
 559      -0.007    -0.003    -0.023      -0.179
 560      -0.077    -0.070    -0.125      -0.059
 561      -0.024    -0.016    -0.064      -0.122
 562       0.005     0.004    -0.012       0.094
 563       0.006    -0.005     0.009      -1.183
 564      -0.002    -0.000     0.002       0.821
 565       0.002    -0.000    -0.002       1.073
 566       0.002     0.001    -0.005       0.247
 567      -0.002    -0.001    -0.009      -0.098
 568       0.004    -0.002    -0.015       0.336
 569       0.006     0.000    -0.014       0.414
 570       0.004     0.002    -0.005       0.216
 571       0.003     0.001    -0.005       0.254
 572       0.634     0.558     0.758      -0.100
 573      -0.241    -0.035     0.399       0.517
 574     -14.847   -14.802   -25.897      -0.002
 575     -14.586   -14.546   -25.542      -0.002
 576       0.594     0.516     0.717      -0.109
 ---------------------------------------------------------------------



--------------------------------------------------------------------------------------------------------


     LOOP+:  cpu time  890.1723: real time  893.0999
    4ORBIT:  cpu time    0.0000: real time    0.0000

 total amount of memory used by VASP MPI-rank0   238704. kBytes
=======================================================================

   base      :      30000. kBytes
   nonlr-proj:       9227. kBytes
   fftplans  :      15014. kBytes
   grid      :      46644. kBytes
   one-center:        294. kBytes
   wavefun   :     137525. kBytes
 
  
  
 General timing and accounting informations for this job:
 ========================================================
  
                  Total CPU time used (sec):      915.856
                            User time (sec):      914.938
                          System time (sec):        0.918
                         Elapsed time (sec):      919.686
  
                   Maximum memory used (kb):      439900.
                   Average memory used (kb):          N/A
  
                          Minor page faults:       153838
                          Major page faults:           38
                 Voluntary context switches:         9859
