 vasp.6.2.0 18Jan21 (build Apr 30 2021 19:00:08) gamma-only                     
  
 executed on             LinuxIFC date 2022.12.30  13:21:40
 running on   24 total cores
 distrk:  each k-point on   24 cores,    1 groups
 distr:  one band on NCORE=   6 cores,    4 groups


--------------------------------------------------------------------------------------------------------


 INCAR:
   SYSTEM = Diamond
   PREC = Normal
   ISTART = 0
   ICHARG = 11
   ISPIN = 2
   MAGMOM = 572*0.0 1*2.0 2*2.0 1*3
   NPAR = 4
   NELECT = 2303
   LHYPERFINE = T
   LEFG = T
   ENCUT = 700
   NELM = 1000
   NELMIN = 4
   EDIFF = 1E-06
   LREAL = Auto
   ALGO = Normal
   EDIFFG = -1E-02
   NSW = 0
   IBRION = 2
   ISIF = 2
   ISYM = 2
   POTIM = 0.5
   ISMEAR = 0
   SIGMA = 0.05
   NEDOS = 1000
   LWAVE = F
   LCHARG = F
   LVHAR = F
   LELF = F

 POTCAR:    PAW_PBE C 08Apr2002                   
 POTCAR:    PAW_PBE H 15Jun2001                   
 POTCAR:    PAW_PBE C 08Apr2002                   
 POTCAR:    PAW_PBE N 08Apr2002                   
 POTCAR:    PAW_PBE C 08Apr2002                   
   VRHFIN =C: s2p2                                                                                  
   LEXCH  = PE                                                                                      
   EATOM  =   147.1560 eV,   10.8157 Ry                                                             
                                                                                                    
   TITEL  = PAW_PBE C 08Apr2002                                                                     
   LULTRA =        F    use ultrasoft PP ?                                                          
   IUNSCR =        1    unscreen: 0-lin 1-nonlin 2-no                                               
   RPACOR =    1.200    partial core radius                                                         
   POMASS =   12.011; ZVAL   =    4.000    mass and valenz                                          
   RCORE  =    1.500    outmost cutoff radius                                                       
   RWIGS  =    1.630; RWIGS  =    0.863    wigner-seitz radius (au A)                               
   ENMAX  =  400.000; ENMIN  =  300.000 eV                                                          
   ICORE  =        2    local potential                                                             
   LCOR   =        T    correct aug charges                                                         
   LPAW   =        T    paw PP                                                                      
   EAUG   =  644.873                                                                                
   DEXC   =    0.000                                                                                
   RMAX   =    1.529    core radius for proj-oper                                                   
   RAUG   =    1.300    factor for augmentation sphere                                              
   RDEP   =    1.501    radius for radial grids                                                     
   RDEPT  =    1.300    core radius for aug-charge                                                  
                                                                                                    
   Atomic configuration                                                                             
    4 entries                                                                                       
     n  l   j            E        occ.                                                              
     1  0  0.50      -273.3789   2.0000                                                             
     2  0  0.50       -13.7508   2.0000                                                             
     2  1  0.50        -5.2854   2.0000                                                             
     3  2  1.50        -5.4423   0.0000                                                             
   Description                                                                                      
     l       E           TYP  RCUT    TYP  RCUT                                                     
     0    -13.7508458     23  1.200                                                                 
     0     -8.2022199     23  1.200                                                                 
     1     -5.2854383     23  1.500                                                                 
     1     34.0145650     23  1.500                                                                 
     2     -5.4423304      7  1.500                                                                 
  local pseudopotential read in
  partial core-charges read in
  partial kinetic energy density read in
  atomic valenz-charges read in
  non local Contribution for L=           0  read in
    real space projection operators read in
  non local Contribution for L=           0  read in
    real space projection operators read in
  non local Contribution for L=           1  read in
    real space projection operators read in
  non local Contribution for L=           1  read in
    real space projection operators read in
    PAW grid and wavefunctions read in
 
   number of l-projection  operators is LMAX  =           4
   number of lm-projection operators is LMMAX =           8
 
 POTCAR:    PAW_PBE H 15Jun2001                   
   VRHFIN =H: ultrasoft test                                                                        
   LEXCH  = PE                                                                                      
   EATOM  =    12.4884 eV,    0.9179 Ry                                                             
                                                                                                    
   TITEL  = PAW_PBE H 15Jun2001                                                                     
   LULTRA =        F    use ultrasoft PP ?                                                          
   IUNSCR =        0    unscreen: 0-lin 1-nonlin 2-no                                               
   RPACOR =    0.000    partial core radius                                                         
   POMASS =    1.000; ZVAL   =    1.000    mass and valenz                                          
   RCORE  =    1.100    outmost cutoff radius                                                       
   RWIGS  =    0.700; RWIGS  =    0.370    wigner-seitz radius (au A)                               
   ENMAX  =  250.000; ENMIN  =  200.000 eV                                                          
   RCLOC  =    0.701    cutoff for local pot                                                        
   LCOR   =        T    correct aug charges                                                         
   LPAW   =        T    paw PP                                                                      
   EAUG   =  400.000                                                                                
   RMAX   =    1.123    core radius for proj-oper                                                   
   RAUG   =    1.200    factor for augmentation sphere                                              
   RDEP   =    1.112    radius for radial grids                                                     
   RDEPT  =    0.926    core radius for aug-charge                                                  
                                                                                                    
   Atomic configuration                                                                             
    2 entries                                                                                       
     n  l   j            E        occ.                                                              
     1  0  0.50        -6.4927   1.0000                                                             
     2  1  0.50        -3.4015   0.0000                                                             
   Description                                                                                      
     l       E           TYP  RCUT    TYP  RCUT                                                     
     0     -6.4927494     23  1.100                                                                 
     0      6.8029130     23  1.100                                                                 
     1     -4.0817478     23  1.100                                                                 
  local pseudopotential read in
  atomic valenz-charges read in
  non local Contribution for L=           0  read in
    real space projection operators read in
  non local Contribution for L=           0  read in
    real space projection operators read in
  non local Contribution for L=           1  read in
    real space projection operators read in
    PAW grid and wavefunctions read in
 
   number of l-projection  operators is LMAX  =           3
   number of lm-projection operators is LMMAX =           5
 
 POTCAR:    PAW_PBE C 08Apr2002                   
   VRHFIN =C: s2p2                                                                                  
   LEXCH  = PE                                                                                      
   EATOM  =   147.1560 eV,   10.8157 Ry                                                             
                                                                                                    
   TITEL  = PAW_PBE C 08Apr2002                                                                     
   LULTRA =        F    use ultrasoft PP ?                                                          
   IUNSCR =        1    unscreen: 0-lin 1-nonlin 2-no                                               
   RPACOR =    1.200    partial core radius                                                         
   POMASS =   12.011; ZVAL   =    4.000    mass and valenz                                          
   RCORE  =    1.500    outmost cutoff radius                                                       
   RWIGS  =    1.630; RWIGS  =    0.863    wigner-seitz radius (au A)                               
   ENMAX  =  400.000; ENMIN  =  300.000 eV                                                          
   ICORE  =        2    local potential                                                             
   LCOR   =        T    correct aug charges                                                         
   LPAW   =        T    paw PP                                                                      
   EAUG   =  644.873                                                                                
   DEXC   =    0.000                                                                                
   RMAX   =    1.529    core radius for proj-oper                                                   
   RAUG   =    1.300    factor for augmentation sphere                                              
   RDEP   =    1.501    radius for radial grids                                                     
   RDEPT  =    1.300    core radius for aug-charge                                                  
                                                                                                    
   Atomic configuration                                                                             
    4 entries                                                                                       
     n  l   j            E        occ.                                                              
     1  0  0.50      -273.3789   2.0000                                                             
     2  0  0.50       -13.7508   2.0000                                                             
     2  1  0.50        -5.2854   2.0000                                                             
     3  2  1.50        -5.4423   0.0000                                                             
   Description                                                                                      
     l       E           TYP  RCUT    TYP  RCUT                                                     
     0    -13.7508458     23  1.200                                                                 
     0     -8.2022199     23  1.200                                                                 
     1     -5.2854383     23  1.500                                                                 
     1     34.0145650     23  1.500                                                                 
     2     -5.4423304      7  1.500                                                                 
  local pseudopotential read in
  partial core-charges read in
  partial kinetic energy density read in
  atomic valenz-charges read in
  non local Contribution for L=           0  read in
    real space projection operators read in
  non local Contribution for L=           0  read in
    real space projection operators read in
  non local Contribution for L=           1  read in
    real space projection operators read in
  non local Contribution for L=           1  read in
    real space projection operators read in
    PAW grid and wavefunctions read in
 
   number of l-projection  operators is LMAX  =           4
   number of lm-projection operators is LMMAX =           8
 
 POTCAR:    PAW_PBE N 08Apr2002                   
   VRHFIN =N: s2p3                                                                                  
   LEXCH  = PE                                                                                      
   EATOM  =   264.5486 eV,   19.4438 Ry                                                             
                                                                                                    
   TITEL  = PAW_PBE N 08Apr2002                                                                     
   LULTRA =        F    use ultrasoft PP ?                                                          
   IUNSCR =        1    unscreen: 0-lin 1-nonlin 2-no                                               
   RPACOR =    1.200    partial core radius                                                         
   POMASS =   14.001; ZVAL   =    5.000    mass and valenz                                          
   RCORE  =    1.500    outmost cutoff radius                                                       
   RWIGS  =    1.400; RWIGS  =    0.741    wigner-seitz radius (au A)                               
   ENMAX  =  400.000; ENMIN  =  300.000 eV                                                          
   ICORE  =        2    local potential                                                             
   LCOR   =        T    correct aug charges                                                         
   LPAW   =        T    paw PP                                                                      
   EAUG   =  627.112                                                                                
   DEXC   =    0.000                                                                                
   RMAX   =    1.529    core radius for proj-oper                                                   
   RAUG   =    1.300    factor for augmentation sphere                                              
   RDEP   =    1.514    radius for radial grids                                                     
   RDEPT  =    1.338    core radius for aug-charge                                                  
                                                                                                    
   Atomic configuration                                                                             
    4 entries                                                                                       
     n  l   j            E        occ.                                                              
     1  0  0.50      -384.7179   2.0000                                                             
     2  0  0.50       -18.5828   2.0000                                                             
     2  1  0.50        -7.0898   3.0000                                                             
     3  2  1.50        -6.8029   0.0000                                                             
   Description                                                                                      
     l       E           TYP  RCUT    TYP  RCUT                                                     
     0    -18.5828119     23  1.200                                                                 
     0    -13.5018863     23  1.200                                                                 
     1     -7.0897853     23  1.500                                                                 
     1      9.5240782     23  1.500                                                                 
     2     -6.8029130      7  1.500                                                                 
  local pseudopotential read in
  partial core-charges read in
  partial kinetic energy density read in
  atomic valenz-charges read in
  non local Contribution for L=           0  read in
    real space projection operators read in
  non local Contribution for L=           0  read in
    real space projection operators read in
  non local Contribution for L=           1  read in
    real space projection operators read in
  non local Contribution for L=           1  read in
    real space projection operators read in
    PAW grid and wavefunctions read in
 
   number of l-projection  operators is LMAX  =           4
   number of lm-projection operators is LMMAX =           8
 
 Optimization of the real space projectors (new method)

 maximal supplied QI-value         = 25.13
 optimisation between [QCUT,QGAM] = [ 13.32, 26.89] = [ 49.69,202.52] Ry 
 Optimized for a Real-space Cutoff    1.01 Angstroem

   l    n(q)    QCUT    max X(q) W(low)/X(q) W(high)/X(q)  e(spline) 
   0      8    13.321   115.676    0.29E-03    0.42E-03    0.11E-06
   0      8    13.321    87.132    0.29E-03    0.42E-03    0.11E-06
   1      8    13.321     4.429    0.39E-03    0.33E-03    0.98E-07
   1      8    13.321     2.733    0.30E-03    0.26E-03    0.97E-07
 Optimization of the real space projectors (new method)

 maximal supplied QI-value         = 34.20
 optimisation between [QCUT,QGAM] = [ 13.34, 27.02] = [ 49.83,204.46] Ry 
 Optimized for a Real-space Cutoff    0.93 Angstroem

   l    n(q)    QCUT    max X(q) W(low)/X(q) W(high)/X(q)  e(spline) 
   0      7    13.340    19.460    0.47E-03    0.72E-04    0.17E-06
   0      7    13.340    12.209    0.45E-03    0.63E-04    0.16E-06
   1      7    13.340     4.655    0.21E-03    0.61E-03    0.12E-06
 Optimization of the real space projectors (new method)

 maximal supplied QI-value         = 25.13
 optimisation between [QCUT,QGAM] = [ 13.32, 26.89] = [ 49.69,202.52] Ry 
 Optimized for a Real-space Cutoff    1.01 Angstroem

   l    n(q)    QCUT    max X(q) W(low)/X(q) W(high)/X(q)  e(spline) 
   0      8    13.321   115.676    0.29E-03    0.42E-03    0.11E-06
   0      8    13.321    87.132    0.29E-03    0.42E-03    0.11E-06
   1      8    13.321     4.429    0.39E-03    0.33E-03    0.98E-07
   1      8    13.321     2.733    0.30E-03    0.26E-03    0.97E-07
 Optimization of the real space projectors (new method)

 maximal supplied QI-value         = 25.13
 optimisation between [QCUT,QGAM] = [ 13.32, 26.89] = [ 49.69,202.52] Ry 
 Optimized for a Real-space Cutoff    1.01 Angstroem

   l    n(q)    QCUT    max X(q) W(low)/X(q) W(high)/X(q)  e(spline) 
   0      8    13.321    79.467    0.28E-03    0.38E-03    0.11E-06
   0      8    13.321    66.151    0.27E-03    0.38E-03    0.11E-06
   1      8    13.321    23.070    0.40E-03    0.78E-03    0.29E-06
   1      8    13.321    16.668    0.40E-03    0.79E-03    0.30E-06
  PAW_PBE C 08Apr2002                   :
 energy of atom  1       EATOM= -147.1560
 kinetic energy error for atom=    0.0032 (will be added to EATOM!!)
  PAW_PBE H 15Jun2001                   :
 energy of atom  2       EATOM=  -12.4884
 kinetic energy error for atom=    0.0002 (will be added to EATOM!!)
  PAW_PBE C 08Apr2002                   :
 energy of atom  3       EATOM= -147.1560
 kinetic energy error for atom=    0.0032 (will be added to EATOM!!)
  PAW_PBE N 08Apr2002                   :
 energy of atom  4       EATOM= -264.5486
 kinetic energy error for atom=    0.0061 (will be added to EATOM!!)
 
 
 POSCAR: Autosave
  positions in direct lattice
  velocities in cartesian coordinates
 exchange correlation table for  LEXCH =        8
   RHO(1)=    0.500       N(1)  =     2000
   RHO(2)=  100.500       N(2)  =     4000
 


--------------------------------------------------------------------------------------------------------


 ion  position               nearest neighbor table
   1  1.000  0.000  0.000- 285 1.55 381 1.55 435 1.55 475 1.55
   2  1.000  0.000  0.500- 286 1.55 380 1.55 474 1.55 434 1.55
   3  1.000  0.250  0.000- 287 1.55 383 1.55 429 1.55 469 1.55
   4  0.000  0.250  0.500- 288 1.55 382 1.55 428 1.55 468 1.55
   5  1.000  0.500  0.000- 289 1.55 431 1.55 385 1.55 471 1.55
   6  0.000  0.500  0.500- 290 1.55 384 1.55 430 1.55 470 1.55
   7  1.000  0.750  0.000- 433 1.55 291 1.55 387 1.55 473 1.55
   8  1.000  0.750  0.500- 292 1.55 432 1.55 472 1.55 386 1.55
   9  0.167  1.000  0.000- 293 1.55 389 1.55 435 1.55 443 1.55
  10  0.167  0.000  0.500- 434 1.55 294 1.55 388 1.55 442 1.55
  11  0.167  0.250  0.000- 391 1.55 429 1.55 437 1.55 295 1.55
  12  0.167  0.250  0.500- 296 1.55 436 1.55 390 1.55 428 1.55
  13  0.167  0.500  0.000- 297 1.55 431 1.55 393 1.55 439 1.55
  14  0.167  0.500  0.500- 430 1.55 392 1.55 298 1.55 438 1.55
  15  0.167  0.750  0.000- 441 1.55 299 1.55 433 1.55 395 1.55
  16  0.167  0.750  0.500- 300 1.55 432 1.55 394 1.55 440 1.55
  17  0.333  1.000  0.000- 397 1.55 301 1.55 451 1.55 443 1.55
  18  0.333  1.000  0.500- 302 1.55 396 1.55 442 1.55 450 1.55
  19  0.333  0.250  0.000- 303 1.55 399 1.55 437 1.55 445 1.55
  20  0.333  0.250  0.500- 304 1.55 444 1.55 436 1.55 398 1.55
  21  0.333  0.500  1.000- 439 1.55 305 1.55 401 1.55 447 1.55
  22  0.334  0.500  0.501- 400 1.54 306 1.55 438 1.55 446 1.55
  23  0.333  0.750  0.000- 307 1.55 403 1.55 441 1.55 449 1.55
  24  0.333  0.750  0.500- 402 1.55 440 1.55 308 1.55 448 1.55
  25  0.500  1.000  0.000- 405 1.55 309 1.55 451 1.55 459 1.55
  26  0.500  1.000  0.500- 404 1.55 310 1.55 450 1.55 458 1.55
  27  0.500  0.250  0.000- 407 1.54 311 1.54 445 1.55 453 1.55
  28  0.500  0.250  0.500- 444 1.55 452 1.55 312 1.55 406 1.55
  29  0.500  0.500  0.999- 447 1.55 455 1.55 409 1.55 313 1.55
  30  0.500  0.750  1.000- 314 1.54 411 1.55 449 1.55 457 1.55
  31  0.500  0.750  0.500- 315 1.55 410 1.55 448 1.55 456 1.55
  32  0.667  1.000  0.000- 413 1.55 316 1.55 467 1.55 459 1.55
  33  0.667  1.000  0.500- 317 1.55 412 1.55 466 1.55 458 1.55
  34  0.667  0.250  0.000- 318 1.55 461 1.55 453 1.55 415 1.55
  35  0.667  0.250  0.500- 319 1.55 452 1.55 460 1.55 414 1.55
  36  0.666  0.500  0.999- 463 1.55 417 1.55 320 1.55 455 1.55
  37  0.667  0.500  0.500- 462 1.54 416 1.55 454 1.55 321 1.55
  38  0.667  0.750  1.000- 322 1.55 419 1.55 465 1.55 457 1.55
  39  0.667  0.750  0.500- 418 1.54 323 1.55 464 1.55 456 1.55
  40  0.833  0.000  0.000- 324 1.55 475 1.55 421 1.55 467 1.55
  41  0.833  0.000  0.500- 474 1.55 420 1.55 325 1.55 466 1.55
  42  0.833  0.250  0.000- 469 1.55 326 1.55 461 1.55 423 1.55
  43  0.833  0.250  0.500- 327 1.55 460 1.55 422 1.55 468 1.55
  44  0.833  0.500  1.000- 328 1.55 471 1.55 425 1.55 463 1.55
  45  0.833  0.500  0.500- 470 1.54 329 1.55 424 1.55 462 1.55
  46  0.833  0.750  0.000- 330 1.55 473 1.55 427 1.55 465 1.55
  47  0.833  0.750  0.500- 472 1.55 331 1.55 426 1.55 464 1.55
  48  0.083  0.125  0.000- 332 1.55 429 1.55 381 1.55 389 1.55
  49  0.083  0.125  0.500- 333 1.55 428 1.55 380 1.55 388 1.55
  50  0.083  0.375  0.000- 334 1.55 431 1.55 391 1.55 383 1.55
  51  0.083  0.375  0.500- 335 1.55 430 1.55 390 1.55 382 1.55
  52  0.083  0.625  0.000- 393 1.55 336 1.55 385 1.55 433 1.55
  53  0.083  0.625  0.500- 384 1.55 337 1.55 432 1.55 392 1.55
  54  0.083  0.875  0.000- 395 1.55 338 1.55 435 1.55 387 1.55
  55  0.083  0.875  0.500- 386 1.55 434 1.55 339 1.55 394 1.55
  56  0.250  0.125  0.000- 437 1.55 340 1.55 389 1.55 397 1.55
  57  0.250  0.125  0.500- 341 1.55 388 1.55 396 1.55 436 1.55
  58  0.250  0.375  0.000- 342 1.55 391 1.55 399 1.55 439 1.55
  59  0.250  0.375  0.500- 343 1.54 398 1.54 438 1.55 390 1.55
  60  0.250  0.625  0.000- 401 1.54 344 1.54 393 1.55 441 1.55
  61  0.250  0.625  0.500- 345 1.55 392 1.55 440 1.55 400 1.55
  62  0.250  0.875  0.000- 443 1.55 346 1.55 395 1.55 403 1.55
  63  0.250  0.875  0.500- 442 1.55 394 1.55 347 1.55 402 1.55
  64  0.417  0.125  0.000- 445 1.54 348 1.55 397 1.55 405 1.55
  65  0.417  0.125  0.500- 349 1.55 396 1.55 404 1.55 444 1.55
  66  0.417  0.375  1.000- 350 1.55 399 1.55 407 1.55 447 1.55
  67  0.418  0.376  0.501- 406 1.54 446 1.55 351 1.56 398 1.56
  68  0.417  0.625  1.000- 352 1.55 449 1.55 401 1.55 409 1.55
  69  0.417  0.625  0.500- 400 1.54 448 1.55 353 1.55 408 1.56
  70  0.417  0.875  0.000- 451 1.55 354 1.55 403 1.55 411 1.55
  71  0.417  0.875  0.500- 450 1.55 355 1.55 402 1.55 410 1.55
  72  0.583  0.125  0.000- 453 1.54 356 1.55 413 1.55 405 1.55
  73  0.583  0.125  0.500- 357 1.55 412 1.55 404 1.55 452 1.55
  74  0.583  0.375  1.000- 407 1.55 358 1.55 415 1.55 455 1.55
  75  0.582  0.376  0.501- 406 1.54 454 1.55 414 1.56 359 1.56
  76  0.583  0.625  1.000- 360 1.55 457 1.55 417 1.55 409 1.55
  77  0.583  0.625  0.500- 456 1.54 416 1.54 408 1.55 361 1.55
  78  0.583  0.875  1.000- 459 1.55 362 1.55 419 1.55 411 1.55
  79  0.583  0.875  0.500- 458 1.55 363 1.55 410 1.55 418 1.55
  80  0.750  0.125  0.000- 364 1.55 461 1.55 421 1.55 413 1.55
  81  0.750  0.125  0.500- 365 1.55 420 1.55 412 1.55 460 1.55
  82  0.750  0.375  1.000- 366 1.54 423 1.55 415 1.55 463 1.55
  83  0.750  0.375  0.500- 367 1.54 414 1.54 462 1.55 422 1.55
  84  0.750  0.625  1.000- 368 1.54 425 1.55 417 1.55 465 1.55
  85  0.750  0.625  0.500- 369 1.55 424 1.55 464 1.55 416 1.55
  86  0.750  0.875  1.000- 370 1.55 467 1.55 427 1.55 419 1.55
  87  0.750  0.875  0.500- 466 1.55 426 1.55 371 1.55 418 1.55
  88  0.917  0.125  0.000- 372 1.55 469 1.55 381 1.55 421 1.55
  89  0.917  0.125  0.500- 468 1.55 373 1.55 420 1.55 380 1.55
  90  0.917  0.375  1.000- 383 1.55 374 1.55 471 1.55 423 1.55
  91  0.917  0.375  0.500- 375 1.55 470 1.55 422 1.55 382 1.55
  92  0.917  0.625  0.000- 385 1.55 376 1.55 473 1.55 425 1.55
  93  0.917  0.625  0.500- 384 1.55 377 1.55 472 1.55 424 1.55
  94  0.917  0.875  0.000- 378 1.55 387 1.55 475 1.55 427 1.55
  95  0.917  0.875  0.500- 386 1.55 474 1.55 426 1.55 379 1.55
  96  0.000  0.083  0.333- 380 1.55 476 1.55 524 1.55 564 1.55
  97  1.000  0.083  0.833- 477 1.55 381 1.55 565 1.55 525 1.55
  98  0.000  0.333  0.333- 382 1.55 478 1.55 526 1.55 566 1.55
  99  1.000  0.333  0.833- 383 1.55 479 1.55 567 1.55 527 1.55
 100  0.000  0.583  0.333- 384 1.55 480 1.55 528 1.55 568 1.55
 101  1.000  0.583  0.833- 529 1.55 569 1.55 385 1.55 481 1.55
 102  1.000  0.833  0.333- 386 1.55 530 1.55 482 1.55 570 1.55
 103  1.000  0.833  0.833- 531 1.55 387 1.55 483 1.55 571 1.55
 104  0.167  0.083  0.333- 388 1.55 484 1.55 524 1.55 532 1.55
 105  0.167  0.083  0.833- 525 1.55 485 1.55 389 1.55 533 1.55
 106  0.167  0.333  0.334- 534 1.55 390 1.55 486 1.55 526 1.55
 107  0.167  0.333  0.833- 527 1.55 391 1.55 487 1.55 535 1.55
 108  0.167  0.583  0.333- 392 1.55 528 1.55 488 1.55 536 1.55
 109  0.166  0.583  0.834- 537 1.54 529 1.55 393 1.55 489 1.55
 110  0.167  0.833  0.333- 394 1.55 530 1.55 490 1.55 538 1.55
 111  0.167  0.833  0.833- 539 1.55 491 1.55 395 1.55 531 1.55
 112  0.333  0.083  0.333- 396 1.55 492 1.55 532 1.55 540 1.55
 113  0.333  0.083  0.833- 493 1.54 533 1.55 397 1.55 541 1.55
 114  0.334  0.334  0.334- 542 1.55 494 1.55 534 1.55 398 1.55
 115  0.333  0.333  0.834- 399 1.54 535 1.55 543 1.55 495 1.55
 116  0.334  0.583  0.334- 536 1.55 496 1.55 544 1.55 400 1.55
 117  0.333  0.584  0.835- 401 1.54 545 1.54 537 1.55 497 1.55
 118  0.333  0.833  0.333- 498 1.55 402 1.55 538 1.55 546 1.55
 119  0.333  0.833  0.833- 499 1.55 403 1.55 539 1.55 547 1.55
 120  0.500  0.083  0.333- 404 1.55 500 1.55 540 1.55 548 1.55
 121  0.500  0.083  0.833- 501 1.54 405 1.55 541 1.55 549 1.55
 122  0.500  0.333  0.334- 542 1.55 550 1.55 502 1.55 406 1.55
 123  0.500  0.332  0.835- 407 1.54 503 1.54 543 1.55 551 1.55
 124  0.500  0.584  0.332- 504 1.54 544 1.55 552 1.55 408 1.55
 125  0.500  0.583  0.832- 505 1.54 545 1.55 409 1.55 553 1.55
 126  0.500  0.833  0.333- 506 1.55 410 1.55 546 1.55 554 1.55
 127  0.500  0.833  0.833- 507 1.55 411 1.55 547 1.55 555 1.55
 128  0.667  0.083  0.333- 412 1.55 508 1.55 556 1.55 548 1.55
 129  0.667  0.083  0.833- 509 1.54 557 1.55 413 1.55 549 1.55
 130  0.666  0.334  0.334- 550 1.55 510 1.55 558 1.55 414 1.55
 131  0.667  0.333  0.833- 415 1.55 559 1.55 551 1.55 511 1.55
 132  0.667  0.583  0.333- 560 1.55 512 1.55 552 1.55 416 1.55
 133  0.667  0.583  0.833- 417 1.54 561 1.55 513 1.55 553 1.57
 134  0.667  0.833  0.333- 514 1.55 418 1.55 562 1.55 554 1.55
 135  0.667  0.833  0.833- 515 1.55 419 1.55 563 1.55 555 1.55
 136  0.833  0.083  0.333- 420 1.55 516 1.55 564 1.55 556 1.55
 137  0.833  0.083  0.833- 565 1.55 421 1.55 517 1.55 557 1.55
 138  0.833  0.333  0.333- 558 1.55 422 1.55 518 1.55 566 1.55
 139  0.833  0.333  0.833- 423 1.55 567 1.55 559 1.55 519 1.55
 140  0.833  0.583  0.333- 568 1.55 424 1.55 520 1.55 560 1.55
 141  0.833  0.583  0.833- 425 1.55 569 1.55 561 1.55 521 1.55
 142  0.833  0.833  0.333- 426 1.55 522 1.55 570 1.55 562 1.55
 143  0.833  0.833  0.833- 571 1.55 563 1.55 427 1.55 523 1.55
 144  0.083  0.208  0.333- 428 1.55 484 1.55 526 1.55 476 1.55
 145  0.083  0.208  0.833- 485 1.55 527 1.55 429 1.55 477 1.55
 146  0.083  0.458  0.333- 430 1.55 486 1.55 528 1.55 478 1.55
 147  0.083  0.458  0.833- 431 1.55 479 1.55 529 1.55 487 1.55
 148  0.083  0.708  0.333- 432 1.55 488 1.55 530 1.55 480 1.55
 149  0.083  0.708  0.833- 489 1.55 433 1.55 531 1.55 481 1.55
 150  0.083  0.958  0.333- 434 1.55 490 1.55 524 1.55 482 1.55
 151  0.083  0.958  0.833- 491 1.55 525 1.55 435 1.55 483 1.55
 152  0.250  0.208  0.334- 436 1.55 534 1.55 492 1.55 484 1.55
 153  0.250  0.208  0.833- 485 1.55 437 1.55 535 1.55 493 1.55
 154  0.250  0.458  0.334- 536 1.55 494 1.55 486 1.55 438 1.55
 155  0.250  0.458  0.833- 439 1.54 487 1.55 537 1.55 495 1.55
 156  0.250  0.708  0.333- 440 1.55 488 1.55 538 1.55 496 1.55
 157  0.250  0.708  0.834- 497 1.54 441 1.55 539 1.55 489 1.55
 158  0.250  0.958  0.333- 442 1.55 532 1.55 490 1.55 498 1.55
 159  0.250  0.958  0.833- 533 1.55 491 1.55 443 1.55 499 1.55
 160  0.417  0.208  0.333- 444 1.55 492 1.55 542 1.55 500 1.55
 161  0.417  0.208  0.834- 543 1.54 445 1.55 493 1.55 501 1.55
 162  0.417  0.458  0.333- 494 1.54 502 1.55 544 1.55 446 1.57
 163  0.417  0.458  0.832- 495 1.54 545 1.55 447 1.55 503 1.56
 164  0.417  0.708  0.333- 546 1.55 496 1.55 504 1.55 448 1.55
 165  0.417  0.708  0.833- 449 1.55 547 1.55 497 1.55 505 1.55
 166  0.417  0.958  0.333- 450 1.55 540 1.55 498 1.55 506 1.55
 167  0.417  0.958  0.833- 541 1.55 451 1.55 499 1.55 507 1.55
 168  0.583  0.208  0.333- 452 1.55 508 1.55 500 1.55 550 1.55
 169  0.583  0.208  0.834- 551 1.54 453 1.55 509 1.55 501 1.55
 170  0.584  0.458  0.332- 510 1.54 502 1.55 552 1.55 454 1.55
 171  0.583  0.458  0.831- 511 1.54 553 1.55 503 1.56 455 1.56
 172  0.583  0.708  0.333- 554 1.54 512 1.55 504 1.55 456 1.55
 173  0.583  0.708  0.833- 457 1.55 513 1.55 555 1.55 505 1.55
 174  0.583  0.958  0.333- 548 1.55 458 1.55 514 1.55 506 1.55
 175  0.583  0.958  0.833- 549 1.55 459 1.55 515 1.55 507 1.55
 176  0.750  0.208  0.333- 460 1.55 558 1.55 508 1.55 516 1.55
 177  0.750  0.208  0.833- 517 1.55 461 1.55 509 1.55 559 1.55
 178  0.750  0.458  0.333- 518 1.54 560 1.55 510 1.55 462 1.55
 179  0.750  0.458  0.833- 463 1.55 519 1.55 561 1.55 511 1.55
 180  0.750  0.708  0.333- 562 1.55 464 1.55 520 1.55 512 1.55
 181  0.750  0.708  0.833- 465 1.55 521 1.55 563 1.55 513 1.55
 182  0.750  0.958  0.333- 466 1.55 556 1.55 522 1.55 514 1.55
 183  0.750  0.958  0.833- 557 1.55 467 1.55 523 1.55 515 1.55
 184  0.917  0.208  0.333- 468 1.55 566 1.55 516 1.55 476 1.55
 185  0.917  0.208  0.833- 517 1.55 469 1.55 477 1.55 567 1.55
 186  0.917  0.458  0.333- 470 1.55 478 1.55 518 1.55 568 1.55
 187  0.917  0.458  0.833- 471 1.55 479 1.55 569 1.55 519 1.55
 188  0.917  0.708  0.333- 472 1.55 480 1.55 520 1.55 570 1.55
 189  0.917  0.708  0.833- 481 1.55 473 1.55 571 1.55 521 1.55
 190  0.917  0.958  0.333- 474 1.55 564 1.55 522 1.55 482 1.55
 191  0.917  0.958  0.833- 523 1.55 475 1.55 483 1.55 565 1.55
 192  0.000  0.167  0.167- 476 1.55 287 1.55 332 1.55 372 1.55
 193  1.000  0.167  0.667- 373 1.55 288 1.55 333 1.55 477 1.55
 194  0.000  0.417  0.167- 334 1.55 478 1.55 289 1.55 374 1.55
 195  1.000  0.417  0.667- 479 1.55 290 1.55 335 1.55 375 1.55
 196  1.000  0.667  0.167- 336 1.55 480 1.55 376 1.55 291 1.55
 197  1.000  0.667  0.667- 337 1.54 377 1.55 292 1.55 481 1.55
 198  1.000  0.917  0.167- 482 1.55 338 1.55 285 1.55 378 1.55
 199  1.000  0.917  0.667- 339 1.55 379 1.55 286 1.55 483 1.55
 200  0.167  0.167  0.167- 484 1.55 295 1.55 340 1.55 332 1.55
 201  0.167  0.167  0.667- 333 1.55 485 1.55 296 1.55 341 1.55
 202  0.167  0.417  0.167- 297 1.55 342 1.55 486 1.55 334 1.55
 203  0.167  0.417  0.667- 487 1.55 298 1.55 335 1.55 343 1.55
 204  0.167  0.667  0.167- 488 1.55 344 1.55 336 1.55 299 1.55
 205  0.166  0.667  0.667- 345 1.54 337 1.55 300 1.55 489 1.55
 206  0.167  0.917  0.167- 490 1.55 293 1.55 346 1.55 338 1.55
 207  0.167  0.917  0.667- 294 1.55 347 1.55 339 1.55 491 1.55
 208  0.333  0.167  0.167- 492 1.55 303 1.55 340 1.55 348 1.55
 209  0.333  0.166  0.667- 304 1.54 341 1.54 493 1.55 349 1.55
 210  0.333  0.417  0.167- 342 1.55 494 1.55 350 1.55 305 1.55
 211  0.334  0.417  0.667- 495 1.54 306 1.55 343 1.55 351 1.56
 212  0.333  0.667  0.167- 496 1.55 307 1.55 344 1.55 352 1.55
 213  0.333  0.668  0.667- 353 1.54 308 1.54 497 1.55 345 1.55
 214  0.333  0.917  0.167- 301 1.55 498 1.55 346 1.55 354 1.55
 215  0.333  0.917  0.667- 302 1.55 499 1.55 347 1.55 355 1.55
 216  0.500  0.167  0.167- 311 1.55 500 1.55 348 1.55 356 1.55
 217  0.500  0.166  0.667- 312 1.54 349 1.55 357 1.55 501 1.55
 218  0.500  0.417  0.167- 350 1.55 313 1.55 358 1.55 502 1.55
 219  0.500  0.667  0.166- 504 1.54 314 1.54 352 1.55 360 1.55
 220  0.500  0.666  0.666- 505 1.54 315 1.55 353 1.55 361 1.56
 221  0.500  0.917  0.167- 309 1.55 506 1.55 354 1.55 362 1.55
 222  0.500  0.917  0.667- 310 1.55 355 1.55 507 1.55 363 1.55
 223  0.667  0.167  0.167- 508 1.55 318 1.55 364 1.55 356 1.55
 224  0.667  0.166  0.667- 319 1.54 365 1.54 509 1.55 357 1.55
 225  0.667  0.417  0.166- 510 1.54 366 1.54 358 1.55 320 1.55
 226  0.665  0.417  0.667- 511 1.54 321 1.55 367 1.56 359 1.56
 227  0.667  0.667  0.166- 322 1.55 512 1.55 368 1.55 360 1.55
 228  0.667  0.668  0.666- 323 1.54 513 1.55 369 1.55 361 1.55
 229  0.667  0.917  0.167- 316 1.55 514 1.55 370 1.55 362 1.55
 230  0.667  0.917  0.667- 317 1.55 515 1.55 371 1.55 363 1.55
 231  0.833  0.167  0.167- 516 1.55 326 1.55 372 1.55 364 1.55
 232  0.833  0.167  0.667- 517 1.55 373 1.55 365 1.55 327 1.55
 233  0.833  0.417  0.167- 374 1.55 328 1.55 518 1.55 366 1.55
 234  0.833  0.417  0.667- 519 1.55 329 1.55 375 1.55 367 1.55
 235  0.833  0.667  0.167- 520 1.55 376 1.55 330 1.55 368 1.55
 236  0.833  0.667  0.667- 369 1.55 377 1.55 521 1.55 331 1.55
 237  0.833  0.917  0.167- 522 1.55 324 1.55 378 1.55 370 1.55
 238  0.833  0.917  0.667- 371 1.54 325 1.54 379 1.55 523 1.55
 239  0.083  0.042  0.167- 524 1.55 293 1.55 332 1.55 285 1.55
 240  0.083  0.042  0.667- 294 1.55 333 1.55 286 1.55 525 1.55
 241  0.083  0.292  0.167- 334 1.55 295 1.55 526 1.55 287 1.55
 242  0.083  0.292  0.667- 335 1.55 527 1.55 296 1.55 288 1.55
 243  0.083  0.542  0.167- 528 1.55 297 1.55 336 1.55 289 1.55
 244  0.083  0.542  0.667- 298 1.54 290 1.54 529 1.55 337 1.55
 245  0.083  0.792  0.167- 299 1.55 530 1.55 338 1.55 291 1.55
 246  0.083  0.792  0.667- 300 1.55 292 1.55 339 1.55 531 1.55
 247  0.250  0.042  0.167- 532 1.55 340 1.55 293 1.55 301 1.55
 248  0.250  0.042  0.667- 341 1.54 294 1.55 533 1.55 302 1.55
 249  0.250  0.292  0.167- 303 1.55 342 1.55 295 1.55 534 1.55
 250  0.250  0.292  0.667- 535 1.55 296 1.55 304 1.55 343 1.55
 251  0.250  0.542  0.167- 297 1.55 344 1.55 536 1.55 305 1.55
 252  0.249  0.542  0.667- 298 1.54 306 1.54 537 1.55 345 1.55
 253  0.250  0.792  0.167- 538 1.55 346 1.55 299 1.55 307 1.55
 254  0.250  0.792  0.667- 308 1.54 347 1.54 300 1.55 539 1.55
 255  0.417  0.042  0.167- 348 1.55 540 1.55 301 1.55 309 1.55
 256  0.417  0.042  0.667- 349 1.54 302 1.55 310 1.55 541 1.55
 257  0.417  0.292  0.167- 303 1.55 350 1.55 311 1.55 542 1.55
 258  0.416  0.291  0.667- 304 1.54 351 1.54 543 1.55 312 1.55
 259  0.417  0.542  0.167- 305 1.55 352 1.55 313 1.55 544 1.55
 260  0.417  0.792  0.167- 354 1.55 307 1.55 546 1.55 314 1.55
 261  0.417  0.792  0.667- 355 1.55 547 1.55 308 1.55 315 1.55
 262  0.583  0.042  0.167- 356 1.55 548 1.55 316 1.55 309 1.55
 263  0.583  0.042  0.667- 357 1.54 317 1.55 549 1.55 310 1.55
 264  0.583  0.292  0.167- 318 1.55 311 1.55 550 1.55 358 1.55
 265  0.584  0.291  0.667- 319 1.54 359 1.55 551 1.55 312 1.55
 266  0.583  0.542  0.166- 320 1.55 552 1.55 360 1.55 313 1.55
 267  0.583  0.792  0.167- 362 1.55 554 1.55 322 1.55 314 1.55
 268  0.583  0.792  0.667- 363 1.55 555 1.55 323 1.55 315 1.55
 269  0.750  0.042  0.167- 556 1.55 364 1.55 324 1.55 316 1.55
 270  0.750  0.042  0.667- 365 1.55 325 1.55 557 1.55 317 1.55
 271  0.750  0.292  0.167- 318 1.55 326 1.55 366 1.55 558 1.55
 272  0.750  0.292  0.667- 559 1.55 319 1.55 327 1.55 367 1.55
 273  0.750  0.542  0.166- 328 1.55 368 1.55 560 1.55 320 1.55
 274  0.751  0.542  0.666- 329 1.54 561 1.55 369 1.55 321 1.55
 275  0.750  0.792  0.167- 562 1.55 370 1.55 330 1.55 322 1.55
 276  0.750  0.792  0.667- 323 1.54 371 1.54 563 1.55 331 1.55
 277  0.917  0.042  0.167- 564 1.55 372 1.55 324 1.55 285 1.55
 278  0.917  0.042  0.667- 325 1.55 373 1.55 286 1.55 565 1.55
 279  0.917  0.292  0.167- 374 1.55 566 1.55 326 1.55 287 1.55
 280  0.917  0.292  0.667- 375 1.55 567 1.55 327 1.55 288 1.55
 281  0.917  0.542  0.167- 568 1.55 289 1.55 376 1.55 328 1.55
 282  0.917  0.542  0.667- 329 1.54 290 1.54 569 1.55 377 1.55
 283  0.917  0.792  0.167- 570 1.55 291 1.55 330 1.55 378 1.55
 284  0.917  0.792  0.667- 331 1.55 292 1.55 379 1.55 571 1.55
 285  1.000  0.000  0.125-   1 1.55 277 1.55 198 1.55 239 1.55
 286  1.000  0.000  0.625- 240 1.55 199 1.55   2 1.55 278 1.55
 287  0.000  0.250  0.125- 192 1.55   3 1.55 279 1.55 241 1.55
 288  1.000  0.250  0.625-   4 1.55 193 1.55 242 1.55 280 1.55
 289  1.000  0.500  0.125-   5 1.55 281 1.55 194 1.55 243 1.55
 290  1.000  0.500  0.625- 282 1.54 244 1.54   6 1.55 195 1.55
 291  1.000  0.750  0.125-   7 1.55 283 1.55 196 1.55 245 1.55
 292  1.000  0.750  0.625- 284 1.55 246 1.55   8 1.55 197 1.55
 293  0.167  0.000  0.125-   9 1.55 239 1.55 206 1.55 247 1.55
 294  0.167  0.000  0.625- 207 1.55 248 1.55 240 1.55  10 1.55
 295  0.167  0.250  0.125- 200 1.55 241 1.55  11 1.55 249 1.55
 296  0.167  0.250  0.625-  12 1.55 250 1.55 242 1.55 201 1.55
 297  0.167  0.500  0.125-  13 1.55 243 1.55 202 1.55 251 1.55
 298  0.166  0.500  0.625- 252 1.54 244 1.54  14 1.55 203 1.55
 299  0.167  0.750  0.125-  15 1.55 245 1.55 253 1.55 204 1.55
 300  0.167  0.750  0.625- 246 1.55  16 1.55 254 1.55 205 1.55
 301  0.333  1.000  0.125-  17 1.55 214 1.55 255 1.55 247 1.55
 302  0.333  1.000  0.625- 215 1.55 256 1.55  18 1.55 248 1.55
 303  0.333  0.250  0.125-  19 1.55 249 1.55 208 1.55 257 1.55
 304  0.333  0.249  0.625- 258 1.54 209 1.54  20 1.55 250 1.55
 305  0.333  0.500  0.125- 259 1.55 210 1.55  21 1.55 251 1.55
 306  0.332  0.501  0.626- 572 1.52 252 1.54  22 1.55 211 1.55
 307  0.333  0.750  0.125-  23 1.55 260 1.55 212 1.55 253 1.55
 308  0.333  0.750  0.625- 213 1.54 254 1.54  24 1.55 261 1.55
 309  0.500  1.000  0.125- 221 1.55  25 1.55 255 1.55 262 1.55
 310  0.500  1.000  0.625- 222 1.55  26 1.55 256 1.55 263 1.55
 311  0.500  0.250  0.125-  27 1.54 216 1.55 264 1.55 257 1.55
 312  0.500  0.249  0.625- 217 1.54  28 1.55 265 1.55 258 1.55
 313  0.500  0.500  0.125- 218 1.55 266 1.55 259 1.55  29 1.55
 314  0.500  0.750  0.125- 219 1.54  30 1.54 267 1.55 260 1.55
 315  0.500  0.750  0.625-  31 1.55 268 1.55 220 1.55 261 1.55
 316  0.667  1.000  0.125- 229 1.55  32 1.55 262 1.55 269 1.55
 317  0.667  1.000  0.625- 230 1.55 263 1.55  33 1.55 270 1.55
 318  0.667  0.250  0.125-  34 1.55 264 1.55 271 1.55 223 1.55
 319  0.667  0.250  0.625- 265 1.54 224 1.54  35 1.55 272 1.55
 320  0.667  0.500  0.124- 266 1.55 225 1.55  36 1.55 273 1.55
 321  0.666  0.501  0.625- 575 1.49  37 1.55 226 1.55 274 1.55
 322  0.667  0.750  0.125-  38 1.55 227 1.55 267 1.55 275 1.55
 323  0.667  0.750  0.625- 228 1.54 276 1.54  39 1.55 268 1.55
 324  0.833  0.000  0.125-  40 1.55 237 1.55 277 1.55 269 1.55
 325  0.833  0.000  0.625- 238 1.54 270 1.55 278 1.55  41 1.55
 326  0.833  0.250  0.125- 231 1.55  42 1.55 279 1.55 271 1.55
 327  0.833  0.250  0.625-  43 1.55 280 1.55 272 1.55 232 1.55
 328  0.833  0.500  0.125- 273 1.55  44 1.55 233 1.55 281 1.55
 329  0.834  0.500  0.625- 274 1.54 282 1.54  45 1.55 234 1.55
 330  0.833  0.750  0.125-  46 1.55 275 1.55 283 1.55 235 1.55
 331  0.833  0.750  0.625- 284 1.55  47 1.55 236 1.55 276 1.55
 332  0.083  0.125  0.125-  48 1.55 239 1.55 192 1.55 200 1.55
 333  0.083  0.125  0.625- 201 1.55 240 1.55  49 1.55 193 1.55
 334  0.083  0.375  0.125- 194 1.55 241 1.55  50 1.55 202 1.55
 335  0.083  0.375  0.625-  51 1.55 242 1.55 203 1.55 195 1.55
 336  0.083  0.625  0.125- 196 1.55  52 1.55 243 1.55 204 1.55
 337  0.083  0.625  0.625- 197 1.54 205 1.55  53 1.55 244 1.55
 338  0.083  0.875  0.125-  54 1.55 198 1.55 245 1.55 206 1.55
 339  0.083  0.875  0.625- 199 1.55 207 1.55 246 1.55  55 1.55
 340  0.250  0.125  0.125-  56 1.55 247 1.55 200 1.55 208 1.55
 341  0.250  0.125  0.625- 209 1.54 248 1.54  57 1.55 201 1.55
 342  0.250  0.375  0.125- 210 1.55  58 1.55 249 1.55 202 1.55
 343  0.251  0.375  0.625-  59 1.54 250 1.55 203 1.55 211 1.55
 344  0.250  0.625  0.125-  60 1.54 204 1.55 212 1.55 251 1.55
 345  0.250  0.625  0.625- 205 1.54  61 1.55 213 1.55 252 1.55
 346  0.250  0.875  0.125-  62 1.55 253 1.55 206 1.55 214 1.55
 347  0.250  0.875  0.625- 254 1.54 207 1.55  63 1.55 215 1.55
 348  0.417  0.125  0.125- 255 1.55  64 1.55 216 1.55 208 1.55
 349  0.417  0.125  0.625- 256 1.54 217 1.55  65 1.55 209 1.55
 350  0.417  0.375  0.125-  66 1.55 218 1.55 210 1.55 257 1.55
 351  0.418  0.374  0.627- 576 1.48 258 1.54  67 1.56 211 1.56
 352  0.417  0.625  0.125-  68 1.55 219 1.55 259 1.55 212 1.55
 353  0.415  0.626  0.626- 572 1.52 213 1.54 220 1.55  69 1.55
 354  0.417  0.875  0.125- 260 1.55  70 1.55 221 1.55 214 1.55
 355  0.417  0.875  0.625- 261 1.55  71 1.55 222 1.55 215 1.55
 356  0.583  0.125  0.125- 262 1.55  72 1.55 216 1.55 223 1.55
 357  0.583  0.125  0.625- 263 1.54 217 1.55  73 1.55 224 1.55
 358  0.583  0.375  0.125-  74 1.55 225 1.55 218 1.55 264 1.55
 359  0.581  0.374  0.627- 576 1.48 265 1.55  75 1.56 226 1.56
 360  0.583  0.625  0.125-  76 1.55 266 1.55 219 1.55 227 1.55
 361  0.584  0.625  0.625- 575 1.49  77 1.55 228 1.55 220 1.56
 362  0.583  0.875  0.125- 267 1.55  78 1.55 221 1.55 229 1.55
 363  0.583  0.875  0.625- 268 1.55  79 1.55 222 1.55 230 1.55
 364  0.750  0.125  0.125-  80 1.55 269 1.55 223 1.55 231 1.55
 365  0.750  0.125  0.625- 224 1.54 270 1.55  81 1.55 232 1.55
 366  0.750  0.375  0.125- 225 1.54  82 1.54 271 1.55 233 1.55
 367  0.749  0.375  0.625-  83 1.54 272 1.55 234 1.55 226 1.56
 368  0.750  0.625  0.125-  84 1.54 227 1.55 273 1.55 235 1.55
 369  0.750  0.625  0.625- 236 1.55  85 1.55 228 1.55 274 1.55
 370  0.750  0.875  0.125-  86 1.55 275 1.55 229 1.55 237 1.55
 371  0.750  0.875  0.625- 276 1.54 238 1.54 230 1.55  87 1.55
 372  0.917  0.125  0.125-  88 1.55 277 1.55 192 1.55 231 1.55
 373  0.917  0.125  0.625- 193 1.55 278 1.55  89 1.55 232 1.55
 374  0.917  0.375  0.125- 233 1.55  90 1.55 279 1.55 194 1.55
 375  0.916  0.375  0.625-  91 1.55 280 1.55 195 1.55 234 1.55
 376  0.917  0.625  0.125-  92 1.55 235 1.55 281 1.55 196 1.55
 377  0.917  0.625  0.625- 197 1.55 236 1.55  93 1.55 282 1.55
 378  0.917  0.875  0.125-  94 1.55 237 1.55 198 1.55 283 1.55
 379  0.917  0.875  0.625- 199 1.55 238 1.55 284 1.55  95 1.55
 380  0.000  0.083  0.458-  96 1.55   2 1.55  49 1.55  89 1.55
 381  1.000  0.083  0.958-  88 1.55   1 1.55  48 1.55  97 1.55
 382  0.000  0.333  0.458-   4 1.55  98 1.55  91 1.55  51 1.55
 383  1.000  0.333  0.958-  90 1.55  99 1.55   3 1.55  50 1.55
 384  0.000  0.583  0.458-  53 1.55 100 1.55  93 1.55   6 1.55
 385  1.000  0.583  0.958-  92 1.55 101 1.55  52 1.55   5 1.55
 386  1.000  0.833  0.458- 102 1.55  95 1.55  55 1.55   8 1.55
 387  1.000  0.833  0.958-  94 1.55  54 1.55 103 1.55   7 1.55
 388  0.167  0.083  0.458- 104 1.55  57 1.55  10 1.55  49 1.55
 389  0.167  0.083  0.958-   9 1.55 105 1.55  56 1.55  48 1.55
 390  0.167  0.333  0.459- 106 1.55  12 1.55  51 1.55  59 1.55
 391  0.167  0.333  0.958- 107 1.55  58 1.55  11 1.55  50 1.55
 392  0.167  0.583  0.458-  61 1.55 108 1.55  14 1.55  53 1.55
 393  0.166  0.583  0.959-  52 1.55 109 1.55  13 1.55  60 1.55
 394  0.167  0.833  0.458- 110 1.55  16 1.55  63 1.55  55 1.55
 395  0.167  0.833  0.958-  54 1.55 111 1.55  15 1.55  62 1.55
 396  0.333  0.083  0.458- 112 1.55  18 1.55  65 1.55  57 1.55
 397  0.333  0.083  0.958-  17 1.55 113 1.55  64 1.55  56 1.55
 398  0.334  0.334  0.459-  59 1.54  20 1.55 114 1.55  67 1.56
 399  0.333  0.333  0.958- 115 1.54  66 1.55  19 1.55  58 1.55
 400  0.334  0.583  0.459-  69 1.54  22 1.54 116 1.55  61 1.55
 401  0.333  0.584  0.959- 117 1.54  60 1.54  68 1.55  21 1.55
 402  0.333  0.833  0.458-  24 1.55 118 1.55  71 1.55  63 1.55
 403  0.333  0.833  0.958- 119 1.55  23 1.55  62 1.55  70 1.55
 404  0.500  0.083  0.458-  26 1.55 120 1.55  73 1.55  65 1.55
 405  0.500  0.083  0.958-  25 1.55 121 1.55  72 1.55  64 1.55
 406  0.500  0.334  0.459-  75 1.54  67 1.54 122 1.55  28 1.55
 407  0.500  0.333  0.959- 123 1.54  27 1.54  74 1.55  66 1.55
 408  0.501  0.583  0.458- 574 1.49  77 1.55 124 1.55  69 1.56
 409  0.500  0.583  0.957-  29 1.55  76 1.55 125 1.55  68 1.55
 410  0.500  0.833  0.458-  31 1.55 126 1.55  79 1.55  71 1.55
 411  0.500  0.833  0.958-  30 1.55 127 1.55  78 1.55  70 1.55
 412  0.667  0.083  0.458- 128 1.55  33 1.55  73 1.55  81 1.55
 413  0.667  0.083  0.958-  32 1.55 129 1.55  72 1.55  80 1.55
 414  0.666  0.334  0.459-  83 1.54  35 1.55 130 1.55  75 1.56
 415  0.667  0.333  0.958- 131 1.55  74 1.55  82 1.55  34 1.55
 416  0.667  0.583  0.458-  77 1.54  37 1.55  85 1.55 132 1.55
 417  0.667  0.583  0.958- 133 1.54  76 1.55  84 1.55  36 1.55
 418  0.667  0.833  0.458-  39 1.54 134 1.55  79 1.55  87 1.55
 419  0.667  0.833  0.958- 135 1.55  38 1.55  78 1.55  86 1.55
 420  0.833  0.083  0.458- 136 1.55  41 1.55  81 1.55  89 1.55
 421  0.833  0.083  0.958-  40 1.55 137 1.55  80 1.55  88 1.55
 422  0.833  0.333  0.458-  43 1.55 138 1.55  91 1.55  83 1.55
 423  0.833  0.333  0.958-  82 1.55 139 1.55  42 1.55  90 1.55
 424  0.833  0.583  0.458-  85 1.55 140 1.55  93 1.55  45 1.55
 425  0.833  0.583  0.958- 141 1.55  84 1.55  44 1.55  92 1.55
 426  0.833  0.833  0.458- 142 1.55  47 1.55  95 1.55  87 1.55
 427  0.833  0.833  0.958- 143 1.55  86 1.55  46 1.55  94 1.55
 428  0.083  0.208  0.458- 144 1.55  49 1.55   4 1.55  12 1.55
 429  0.083  0.208  0.958-  48 1.55  11 1.55 145 1.55   3 1.55
 430  0.083  0.458  0.458- 146 1.55  51 1.55  14 1.55   6 1.55
 431  0.083  0.458  0.958- 147 1.55  50 1.55  13 1.55   5 1.55
 432  0.083  0.708  0.458- 148 1.55  16 1.55   8 1.55  53 1.55
 433  0.083  0.708  0.958-   7 1.55 149 1.55  15 1.55  52 1.55
 434  0.083  0.958  0.458- 150 1.55  10 1.55  55 1.55   2 1.55
 435  0.083  0.958  0.958-   9 1.55  54 1.55 151 1.55   1 1.55
 436  0.250  0.208  0.458- 152 1.55  12 1.55  20 1.55  57 1.55
 437  0.250  0.208  0.958-  56 1.55 153 1.55  19 1.55  11 1.55
 438  0.251  0.459  0.459-  59 1.55 154 1.55  14 1.55  22 1.55
 439  0.250  0.458  0.958- 155 1.54  21 1.55  58 1.55  13 1.55
 440  0.250  0.708  0.458- 156 1.55  24 1.55  61 1.55  16 1.55
 441  0.250  0.708  0.959-  15 1.55 157 1.55  23 1.55  60 1.55
 442  0.250  0.958  0.458-  63 1.55 158 1.55  18 1.55  10 1.55
 443  0.250  0.958  0.958-  62 1.55 159 1.55  17 1.55   9 1.55
 444  0.417  0.208  0.458-  28 1.55 160 1.55  20 1.55  65 1.55
 445  0.417  0.208  0.959-  64 1.54 161 1.55  19 1.55  27 1.55
 446  0.419  0.459  0.460- 574 1.51  67 1.55  22 1.55 162 1.57
 447  0.417  0.458  0.958-  29 1.55  66 1.55  21 1.55 163 1.55
 448  0.417  0.708  0.458-  31 1.55 164 1.55  69 1.55  24 1.55
 449  0.417  0.708  0.958- 165 1.55  68 1.55  30 1.55  23 1.55
 450  0.417  0.958  0.458-  71 1.55 166 1.55  18 1.55  26 1.55
 451  0.417  0.958  0.958-  70 1.55 167 1.55  17 1.55  25 1.55
 452  0.583  0.208  0.458-  35 1.55  28 1.55 168 1.55  73 1.55
 453  0.583  0.208  0.959-  72 1.54 169 1.55  34 1.55  27 1.55
 454  0.583  0.459  0.458- 574 1.49  37 1.55  75 1.55 170 1.55
 455  0.583  0.458  0.957-  29 1.55  74 1.55  36 1.55 171 1.56
 456  0.583  0.708  0.458-  77 1.54 172 1.55  39 1.55  31 1.55
 457  0.583  0.708  0.958- 173 1.55  76 1.55  30 1.55  38 1.55
 458  0.583  0.958  0.458-  79 1.55 174 1.55  33 1.55  26 1.55
 459  0.583  0.958  0.958-  78 1.55 175 1.55  32 1.55  25 1.55
 460  0.750  0.208  0.458- 176 1.55  43 1.55  35 1.55  81 1.55
 461  0.750  0.208  0.958- 177 1.55  80 1.55  34 1.55  42 1.55
 462  0.750  0.459  0.458-  37 1.54  83 1.55 178 1.55  45 1.55
 463  0.750  0.458  0.958- 179 1.55  36 1.55  82 1.55  44 1.55
 464  0.750  0.708  0.458-  85 1.55 180 1.55  47 1.55  39 1.55
 465  0.750  0.708  0.958- 181 1.55  38 1.55  46 1.55  84 1.55
 466  0.750  0.958  0.458-  87 1.55 182 1.55  33 1.55  41 1.55
 467  0.750  0.958  0.958-  86 1.55 183 1.55  32 1.55  40 1.55
 468  0.917  0.208  0.458- 184 1.55  89 1.55  43 1.55   4 1.55
 469  0.917  0.208  0.958-  88 1.55  42 1.55 185 1.55   3 1.55
 470  0.917  0.458  0.458-  45 1.54 186 1.55  91 1.55   6 1.55
 471  0.917  0.458  0.958- 187 1.55  44 1.55  90 1.55   5 1.55
 472  0.917  0.708  0.458- 188 1.55  47 1.55   8 1.55  93 1.55
 473  0.917  0.708  0.958-  46 1.55 189 1.55  92 1.55   7 1.55
 474  0.917  0.958  0.458- 190 1.55  41 1.55  95 1.55   2 1.55
 475  0.917  0.958  0.958-  40 1.55 191 1.55  94 1.55   1 1.55
 476  0.000  0.167  0.292- 192 1.55  96 1.55 184 1.55 144 1.55
 477  1.000  0.167  0.792-  97 1.55 185 1.55 193 1.55 145 1.55
 478  0.000  0.417  0.292- 186 1.55 194 1.55  98 1.55 146 1.55
 479  1.000  0.417  0.792- 195 1.55  99 1.55 187 1.55 147 1.55
 480  1.000  0.667  0.292- 196 1.55 188 1.55 100 1.55 148 1.55
 481  1.000  0.667  0.792- 189 1.55 197 1.55 149 1.55 101 1.55
 482  1.000  0.917  0.292- 198 1.55 190 1.55 102 1.55 150 1.55
 483  1.000  0.917  0.792- 191 1.55 151 1.55 199 1.55 103 1.55
 484  0.167  0.167  0.292- 200 1.55 144 1.55 104 1.55 152 1.55
 485  0.167  0.167  0.792- 153 1.55 105 1.55 201 1.55 145 1.55
 486  0.167  0.417  0.292- 106 1.55 146 1.55 202 1.55 154 1.55
 487  0.167  0.417  0.792- 155 1.55 203 1.55 107 1.55 147 1.55
 488  0.167  0.667  0.292- 204 1.55 148 1.55 156 1.55 108 1.55
 489  0.167  0.667  0.792- 149 1.55 205 1.55 157 1.55 109 1.55
 490  0.167  0.917  0.292- 206 1.55 150 1.55 110 1.55 158 1.55
 491  0.167  0.917  0.792- 151 1.55 111 1.55 159 1.55 207 1.55
 492  0.333  0.167  0.292- 208 1.55 152 1.55 160 1.55 112 1.55
 493  0.333  0.166  0.792- 113 1.54 161 1.55 209 1.55 153 1.55
 494  0.334  0.417  0.292- 162 1.54 210 1.55 114 1.55 154 1.55
 495  0.333  0.417  0.792- 211 1.54 163 1.54 155 1.55 115 1.55
 496  0.333  0.667  0.292- 164 1.55 116 1.55 212 1.55 156 1.55
 497  0.333  0.667  0.792- 157 1.54 165 1.55 213 1.55 117 1.55
 498  0.333  0.917  0.292- 118 1.55 214 1.55 166 1.55 158 1.55
 499  0.333  0.917  0.792- 119 1.55 167 1.55 215 1.55 159 1.55
 500  0.500  0.167  0.292- 216 1.55 120 1.55 168 1.55 160 1.55
 501  0.500  0.166  0.792- 121 1.54 217 1.55 169 1.55 161 1.55
 502  0.500  0.417  0.292- 122 1.55 218 1.55 170 1.55 162 1.55
 503  0.500  0.415  0.790- 576 1.48 123 1.54 171 1.56 163 1.56
 504  0.500  0.667  0.291- 124 1.54 219 1.54 172 1.55 164 1.55
 505  0.500  0.666  0.791- 220 1.54 125 1.54 173 1.55 165 1.55
 506  0.500  0.917  0.292- 126 1.55 221 1.55 166 1.55 174 1.55
 507  0.500  0.917  0.792- 127 1.55 222 1.55 167 1.55 175 1.55
 508  0.667  0.167  0.292- 223 1.55 128 1.55 168 1.55 176 1.55
 509  0.667  0.166  0.792- 129 1.54 169 1.55 177 1.55 224 1.55
 510  0.667  0.417  0.291- 170 1.54 225 1.54 178 1.55 130 1.55
 511  0.666  0.417  0.791- 226 1.54 171 1.54 179 1.55 131 1.55
 512  0.667  0.667  0.291- 132 1.55 227 1.55 172 1.55 180 1.55
 513  0.667  0.667  0.791- 173 1.55 181 1.55 228 1.55 133 1.55
 514  0.667  0.917  0.292- 134 1.55 229 1.55 174 1.55 182 1.55
 515  0.667  0.917  0.792- 135 1.55 175 1.55 230 1.55 183 1.55
 516  0.833  0.167  0.292- 231 1.55 136 1.55 184 1.55 176 1.55
 517  0.833  0.167  0.792- 177 1.55 232 1.55 137 1.55 185 1.55
 518  0.833  0.417  0.292- 178 1.54 186 1.55 233 1.55 138 1.55
 519  0.833  0.417  0.792- 234 1.55 179 1.55 139 1.55 187 1.55
 520  0.833  0.667  0.292- 235 1.55 180 1.55 140 1.55 188 1.55
 521  0.833  0.667  0.792- 181 1.55 236 1.55 189 1.55 141 1.55
 522  0.833  0.917  0.292- 237 1.55 142 1.55 190 1.55 182 1.55
 523  0.833  0.917  0.792- 191 1.55 183 1.55 143 1.55 238 1.55
 524  0.083  0.042  0.292- 239 1.55 104 1.55 150 1.55  96 1.55
 525  0.083  0.042  0.792- 105 1.55 151 1.55 240 1.55  97 1.55
 526  0.083  0.292  0.292- 144 1.55 241 1.55  98 1.55 106 1.55
 527  0.083  0.292  0.792- 107 1.55 242 1.55 145 1.55  99 1.55
 528  0.083  0.542  0.292- 243 1.55 146 1.55 100 1.55 108 1.55
 529  0.083  0.542  0.792- 101 1.55 109 1.55 147 1.55 244 1.55
 530  0.083  0.792  0.292- 245 1.55 110 1.55 102 1.55 148 1.55
 531  0.083  0.792  0.792- 103 1.55 111 1.55 246 1.55 149 1.55
 532  0.250  0.042  0.292- 247 1.55 158 1.55 104 1.55 112 1.55
 533  0.250  0.042  0.792- 159 1.55 113 1.55 248 1.55 105 1.55
 534  0.250  0.292  0.292- 106 1.55 152 1.55 249 1.55 114 1.55
 535  0.250  0.292  0.792- 115 1.55 250 1.55 153 1.55 107 1.55
 536  0.250  0.542  0.292- 154 1.55 116 1.55 251 1.55 108 1.55
 537  0.249  0.542  0.792- 109 1.54 155 1.55 252 1.55 117 1.55
 538  0.250  0.792  0.292- 253 1.55 118 1.55 156 1.55 110 1.55
 539  0.250  0.792  0.792- 111 1.55 119 1.55 157 1.55 254 1.55
 540  0.417  0.042  0.292- 255 1.55 166 1.55 112 1.55 120 1.55
 541  0.417  0.042  0.792- 167 1.55 256 1.55 121 1.55 113 1.55
 542  0.417  0.292  0.292- 114 1.55 122 1.55 160 1.55 257 1.55
 543  0.416  0.291  0.792- 161 1.54 115 1.55 258 1.55 123 1.55
 544  0.417  0.542  0.292- 116 1.55 259 1.55 124 1.55 162 1.55
 545  0.415  0.542  0.792- 572 1.51 117 1.54 125 1.55 163 1.55
 546  0.417  0.792  0.292- 164 1.55 118 1.55 260 1.55 126 1.55
 547  0.417  0.792  0.792- 261 1.55 165 1.55 127 1.55 119 1.55
 548  0.583  0.042  0.292- 262 1.55 174 1.55 128 1.55 120 1.55
 549  0.583  0.042  0.792- 175 1.55 263 1.55 129 1.55 121 1.55
 550  0.583  0.292  0.292- 130 1.55 122 1.55 168 1.55 264 1.55
 551  0.583  0.291  0.792- 169 1.54 131 1.55 265 1.55 123 1.55
 552  0.583  0.542  0.291- 266 1.55 132 1.55 170 1.55 124 1.55
 553  0.583  0.541  0.789- 575 1.51 171 1.55 125 1.55 133 1.57
 554  0.583  0.792  0.292- 172 1.54 267 1.55 134 1.55 126 1.55
 555  0.583  0.792  0.792- 268 1.55 173 1.55 135 1.55 127 1.55
 556  0.750  0.042  0.292- 269 1.55 182 1.55 136 1.55 128 1.55
 557  0.750  0.042  0.792- 183 1.55 129 1.55 270 1.55 137 1.55
 558  0.750  0.292  0.292- 176 1.55 138 1.55 130 1.55 271 1.55
 559  0.750  0.292  0.792- 272 1.55 131 1.55 139 1.55 177 1.55
 560  0.750  0.542  0.291- 132 1.55 178 1.55 273 1.55 140 1.55
 561  0.750  0.542  0.791- 179 1.55 141 1.55 274 1.55 133 1.55
 562  0.750  0.792  0.292- 275 1.55 180 1.55 134 1.55 142 1.55
 563  0.750  0.792  0.792- 143 1.55 135 1.55 276 1.55 181 1.55
 564  0.917  0.042  0.292- 277 1.55 190 1.55 136 1.55  96 1.55
 565  0.917  0.042  0.792- 137 1.55 191 1.55 278 1.55  97 1.55
 566  0.917  0.292  0.292- 184 1.55 279 1.55 138 1.55  98 1.55
 567  0.917  0.292  0.792- 280 1.55 139 1.55 185 1.55  99 1.55
 568  0.917  0.542  0.292- 140 1.55 281 1.55 186 1.55 100 1.55
 569  0.917  0.542  0.792- 101 1.55 141 1.55 282 1.55 187 1.55
 570  0.917  0.792  0.292- 283 1.55 142 1.55 188 1.55 102 1.55
 571  0.917  0.792  0.792- 143 1.55 284 1.55 103 1.55 189 1.55
 572  0.411  0.544  0.670- 573 1.09 545 1.51 306 1.52 353 1.52
 573  0.470  0.516  0.640- 572 1.09
 574  0.502  0.501  0.492- 454 1.49 408 1.49 446 1.51
 575  0.590  0.545  0.667- 321 1.49 361 1.49 553 1.51
 576  0.500  0.409  0.671- 503 1.48 351 1.48 359 1.48
 
  LATTYP: Found a simple monoclinic cell.
 ALAT       =    12.3703241348
 B/A-ratio  =     1.2248453018
 C/A-ratio  =     1.4141600350
 COS(beta)  =    -0.0000282295
  
  Lattice vectors:
  
 A1 = (   0.0000000000,  -0.0003492082,  12.3703241299)
 A2 = (  15.1517333984,   0.0000000000,   0.0000000000)
 A3 = (   0.0000000000,  17.4936180115,   0.0000000000)


Analysis of symmetry for initial positions (statically):
=====================================================================
 Subroutine PRICEL returns:
 Original cell was already a primitive cell.
 

 Routine SETGRP: Setting up the symmetry group for a 
 simple monoclinic supercell.


 Subroutine GETGRP returns: Found  1 space group operations
 (whereof  1 operations were pure point group operations)
 out of a pool of  4 trial point group operations.


The static configuration has the point symmetry C_1 .


Analysis of symmetry for dynamics (positions and initial velocities):
=====================================================================
 Subroutine PRICEL returns:
 Original cell was already a primitive cell.
 

 Routine SETGRP: Setting up the symmetry group for a 
 simple monoclinic supercell.


 Subroutine GETGRP returns: Found  1 space group operations
 (whereof  1 operations were pure point group operations)
 out of a pool of  4 trial point group operations.


The dynamic configuration has the point symmetry C_1 .


Analysis of structural, dynamic, and magnetic symmetry:
=====================================================================
 Subroutine PRICEL returns:
 Original cell was already a primitive cell.
 

 Routine SETGRP: Setting up the symmetry group for a 
 simple monoclinic supercell.


 Subroutine GETGRP returns: Found  1 space group operations
 (whereof  1 operations were pure point group operations)
 out of a pool of  4 trial point group operations.


The overall configuration has the point symmetry C_1 .


 Subroutine INISYM returns: Found  1 space group operations
 (whereof  1 operations are pure point group operations),
 and found     1 'primitive' translations


----------------------------------------------------------------------------------------

                                     Primitive cell                                     

  volume of cell :    3278.8612

  direct lattice vectors                    reciprocal lattice vectors
    15.151733398  0.000000000  0.000000000     0.065999049  0.000000000  0.000000000
     0.000000000 17.493618012  0.000000000     0.000000000  0.057163704  0.000001614
     0.000000000 -0.000349208 12.370324130     0.000000000  0.000000000  0.080838626

  length of vectors
    15.151733398 17.493618012 12.370324135     0.065999049  0.057163704  0.080838626

  position of ions in fractional coordinates (direct lattice)
     0.999977929  0.000034694  0.000052221
     0.999998362  0.000060630  0.500001433
     0.999977052  0.250024853  0.000046024
     0.000005883  0.250057802  0.500017021
     0.999932697  0.499992262  0.000009391
     0.000065684  0.500004273  0.500013134
     0.999944305  0.750012264  0.000063846
     0.999988552  0.750033958  0.500051660
     0.166624389  0.999999120  0.000071919
     0.166635597  0.000044534  0.500018278
     0.166656720  0.249996625  0.000119033
     0.166738647  0.250072851  0.500096322
     0.166616676  0.499994674  0.000125113
     0.166794672  0.500023269  0.500159234
     0.166574772  0.750039446  0.000152640
     0.166653845  0.750037603  0.500071103
     0.333311191  0.999938920  0.000088582
     0.333323322  0.999979706  0.500039426
     0.333300959  0.249916218  0.000188224
     0.333465630  0.250050771  0.500276725
     0.333337049  0.499935763  0.999793085
     0.334032164  0.500303351  0.500862373
     0.333291941  0.749994603  0.000040877
     0.333353153  0.750041040  0.500046389
     0.499991177  0.999930223  0.000058230
     0.500003008  0.999966288  0.500031122
     0.499963744  0.249738501  0.000449494
     0.500016972  0.249992233  0.500156653
     0.499939776  0.499921207  0.999394174
     0.499969993  0.750018697  0.999799974
     0.500060955  0.749910238  0.499982083
     0.666670030  0.999946852  0.000053078
     0.666679719  0.999999376  0.500016334
     0.666625222  0.249944146  0.000041742
     0.666570713  0.250058187  0.500174259
     0.666447198  0.499935056  0.999288119
     0.666701858  0.500122604  0.499833389
     0.666616164  0.749968867  0.999870083
     0.666728832  0.750167012  0.499871921
     0.833336747  0.000007979  0.000043708
     0.833365437  0.000072115  0.500003242
     0.833298402  0.250011076  0.000011796
     0.833283161  0.250079966  0.500026879
     0.833231663  0.499984649  0.999836482
     0.833437745  0.500018760  0.499903623
     0.833289128  0.749995134  0.000000856
     0.833350283  0.750070011  0.499959464
     0.083308517  0.125023412  0.000064651
     0.083337859  0.125064307  0.500013717
     0.083299046  0.374999707  0.000056848
     0.083451577  0.375047630  0.500097667
     0.083205069  0.625013825  0.000182692
     0.083343755  0.625008535  0.500069536
     0.083269025  0.875031853  0.000087185
     0.083305835  0.875047499  0.500029846
     0.249970121  0.124953479  0.000111405
     0.250013352  0.125010312  0.500060245
     0.249942489  0.374947887  0.000079611
     0.250456439  0.375171071  0.500356355
     0.249757079  0.625079340  0.000492277
     0.250065433  0.625028885  0.500155161
     0.249945954  0.874988528  0.000068832
     0.249959581  0.875038066  0.500025967
     0.416640609  0.124858924  0.000209121
     0.416670373  0.124958225  0.500084529
     0.416648989  0.374861546  0.999993014
     0.417898759  0.375696729  0.501360472
     0.416613476  0.624973937  0.999811650
     0.416858036  0.624745254  0.500446788
     0.416647898  0.874967796  0.000002961
     0.416682425  0.874973238  0.500003120
     0.583337506  0.124873550  0.000166212
     0.583330729  0.124967735  0.500065773
     0.583210486  0.374904587  0.999711717
     0.582377563  0.375740212  0.500959181
     0.583277644  0.624943521  0.999569922
     0.583439317  0.625122401  0.499762497
     0.583317325  0.874975002  0.999953203
     0.583340027  0.874991166  0.499968060
     0.749994028  0.124971906  0.000055629
     0.749989832  0.125026031  0.500036006
     0.749973658  0.374946995  0.999746331
     0.749687930  0.375185152  0.500107366
     0.749967275  0.624986373  0.999978003
     0.750036593  0.625063279  0.499795794
     0.749982687  0.874980483  0.999990291
     0.750055519  0.875098672  0.499960585
     0.916657817  0.125028959  0.000041246
     0.916666276  0.125074846  0.500003631
     0.916626726  0.374995775  0.999923730
     0.916597941  0.375051761  0.500014057
     0.916596559  0.624992289  0.000017652
     0.916684210  0.625021088  0.499957653
     0.916642428  0.875021126  0.000048569
     0.916680443  0.875061701  0.500001582
     0.000004396  0.083393219  0.333342518
     0.999973301  0.083372171  0.833364709
     0.000032123  0.333383841  0.333397077
     0.999937887  0.333337410  0.833321527
     0.000021004  0.583328646  0.333364642
     0.999875610  0.583333666  0.833406030
     0.999987153  0.833363794  0.333382792
     0.999950149  0.833362123  0.833380170
     0.166686964  0.083389437  0.333359241
     0.166622431  0.083307601  0.833384907
     0.166847285  0.333428671  0.333549656
     0.166609098  0.333287178  0.833384444
     0.166759256  0.583320798  0.333447547
     0.166373213  0.583359464  0.833599671
     0.166664172  0.833351586  0.333385560
     0.166566189  0.833396405  0.833426692
     0.333334461  0.083349140  0.333403442
     0.333240752  0.083166669  0.833451045
     0.333680784  0.333559172  0.333855162
     0.333197811  0.333148248  0.833518905
     0.333502294  0.583346420  0.333530315
     0.332605800  0.583543265  0.834629120
     0.333329052  0.833358226  0.333349264
     0.333265381  0.833330292  0.833341079
     0.500004873  0.083325763  0.333425754
     0.499977711  0.083165948  0.833436737
     0.500062243  0.333490089  0.333542467
     0.499816357  0.332418961  0.834546164
     0.500180837  0.584134916  0.332440938
     0.499635992  0.583127308  0.832223459
     0.500014782  0.833328889  0.333328059
     0.499976157  0.833305605  0.833246142
     0.666681905  0.083357366  0.333372819
     0.666701316  0.083199008  0.833415611
     0.666488423  0.333519608  0.333583812
     0.666561576  0.333229877  0.833221551
     0.666748524  0.583405456  0.333130007
     0.666528193  0.583277936  0.833349286
     0.666695082  0.833411688  0.333242003
     0.666648421  0.833302492  0.833253508
     0.833326411  0.083394770  0.333336131
     0.833321074  0.083332247  0.833361033
     0.833252662  0.333408188  0.333397836
     0.833240278  0.333322510  0.833190722
     0.833339277  0.583329731  0.333209079
     0.833219180  0.583306709  0.833228455
     0.833325954  0.833378075  0.333311665
     0.833310582  0.833360580  0.833346373
     0.083383705  0.208399436  0.333399423
     0.083309869  0.208337851  0.833388693
     0.083424508  0.458344339  0.333415840
     0.083259881  0.458327156  0.833384462
     0.083339425  0.708342578  0.333465606
     0.083239949  0.708364787  0.833441311
     0.083344100  0.958375338  0.333363255
     0.083292404  0.958371074  0.833389722
     0.250064722  0.208415814  0.333501154
     0.249933939  0.208229426  0.833472214
     0.250235081  0.458388690  0.333582260
     0.249841769  0.458334283  0.833492740
     0.250046693  0.708343855  0.333455896
     0.249810949  0.708465816  0.833549468
     0.249989516  0.958363306  0.333396071
     0.249931588  0.958297419  0.833414327
     0.416677644  0.208385178  0.333497916
     0.416502157  0.207952300  0.833670213
     0.416581876  0.458292981  0.333353851
     0.416529809  0.458204111  0.831990125
     0.416726113  0.708363221  0.333304782
     0.416563626  0.708321863  0.833247811
     0.416654059  0.958324360  0.333383706
     0.416620429  0.958256980  0.833373106
     0.583350560  0.208384730  0.333450871
     0.583371571  0.208005907  0.833581027
     0.584188022  0.458106879  0.332443844
     0.582788516  0.458132542  0.831187534
     0.583389262  0.708468266  0.333104209
     0.583242206  0.708251272  0.833060810
     0.583363483  0.958336809  0.333357659
     0.583348732  0.958263418  0.833351969
     0.749976758  0.208400375  0.333435605
     0.749967600  0.208282190  0.833380415
     0.750079390  0.458341048  0.333143079
     0.749773150  0.458343965  0.833057609
     0.750001155  0.708391253  0.333255698
     0.749898112  0.708338430  0.833247490
     0.750016398  0.958388010  0.333349513
     0.750013390  0.958308743  0.833385001
     0.916642659  0.208395459  0.333373152
     0.916618791  0.208355383  0.833345955
     0.916701819  0.458329830  0.333288087
     0.916532985  0.458334370  0.833255555
     0.916644741  0.708349773  0.333374613
     0.916567986  0.708336718  0.833334508
     0.916652589  0.958388415  0.333344760
     0.916640429  0.958368462  0.833379948
     0.000005001  0.166715612  0.166702771
     0.999978536  0.166723116  0.666663400
     0.000016373  0.416672361  0.166668852
     0.999949135  0.416685295  0.666672826
     0.999952498  0.666668621  0.166748296
     0.999934597  0.666707272  0.666668175
     0.999983643  0.916700601  0.166707178
     0.999971453  0.916733137  0.666680770
     0.166684183  0.166711764  0.166773701
     0.166631538  0.166651519  0.666720573
     0.166720981  0.416689756  0.166804267
     0.166855008  0.416693805  0.666811925
     0.166598976  0.666692994  0.166913301
     0.166455112  0.666770409  0.666745182
     0.166643324  0.916687104  0.166733601
     0.166548993  0.916766346  0.666694799
     0.333346854  0.166672936  0.166825414
     0.333139958  0.166297360  0.666791875
     0.333317070  0.416635656  0.166660578
     0.334248516  0.417042963  0.667341981
     0.333350259  0.666671194  0.166726826
     0.332766533  0.667604656  0.666669428
     0.333320841  0.916661803  0.166718225
     0.333280936  0.916662506  0.666685534
     0.500002074  0.166617255  0.166866431
     0.499968181  0.166327681  0.666757291
     0.500021824  0.416682612  0.166556257
     0.500019324  0.666892050  0.166192155
     0.499864816  0.666280966  0.666499698
     0.500000499  0.916647356  0.166674923
     0.499992877  0.916648897  0.666630762
     0.666656733  0.166679430  0.166760022
     0.666776589  0.166376907  0.666742355
     0.666862604  0.416575894  0.166148680
     0.665270005  0.417181350  0.666756964
     0.666647098  0.666684256  0.166460088
     0.666955230  0.667574550  0.666147241
     0.666670211  0.916679645  0.166654457
     0.666697464  0.916681686  0.666644708
     0.833324375  0.166713626  0.166715469
     0.833307239  0.166689869  0.666683145
     0.833346241  0.416658137  0.166517053
     0.832981666  0.416750287  0.666598779
     0.833314835  0.666669132  0.166671199
     0.833356658  0.666740691  0.666520191
     0.833325914  0.916692890  0.166685010
     0.833408063  0.916792364  0.666662388
     0.083339164  0.041706532  0.166698374
     0.083303592  0.041718107  0.666671303
     0.083378800  0.291712889  0.166762475
     0.083337417  0.291671831  0.666682149
     0.083339492  0.541664772  0.166739938
     0.083049945  0.541646098  0.666725632
     0.083301722  0.791685672  0.166755666
     0.083261378  0.791736715  0.666701418
     0.249997874  0.041671126  0.166706525
     0.249909726  0.041571830  0.666676881
     0.250096103  0.291727405  0.166878449
     0.250059675  0.291558257  0.666775627
     0.250064903  0.541656955  0.166728318
     0.248802255  0.541586605  0.666835939
     0.249980160  0.791669214  0.166716297
     0.249779407  0.791981546  0.666679485
     0.416657132  0.041628588  0.166759325
     0.416621486  0.041539545  0.666703380
     0.416679784  0.291700112  0.166844528
     0.416080474  0.290549428  0.667031017
     0.416691748  0.541676413  0.166529940
     0.416654246  0.791684472  0.166618582
     0.416627052  0.791692638  0.666617357
     0.583351723  0.041636208  0.166739413
     0.583358358  0.041553601  0.666690631
     0.583331600  0.291704917  0.166726537
     0.583669534  0.290732698  0.666856088
     0.583386126  0.541699209  0.166266985
     0.583344465  0.791708739  0.166519745
     0.583373542  0.791692886  0.666543538
     0.750002046  0.041683436  0.166666416
     0.750056509  0.041608175  0.666660055
     0.749941474  0.291714161  0.166690821
     0.749811310  0.291663932  0.666617148
     0.749952399  0.541645859  0.166383546
     0.750947360  0.541500688  0.666159981
     0.749987236  0.791678169  0.166594788
     0.750150800  0.792007609  0.666547215
     0.916652184  0.041710195  0.166683923
     0.916666564  0.041741171  0.666664479
     0.916639699  0.291709200  0.166696278
     0.916602874  0.291695690  0.666617771
     0.916634022  0.541652451  0.166614088
     0.916881113  0.541634325  0.666577389
     0.916627584  0.791678086  0.166698314
     0.916657036  0.791732782  0.666657595
     0.999990059  0.000039714  0.125022787
     0.999983898  0.000061703  0.624997750
     0.000004840  0.250047639  0.125043631
     0.999975139  0.250053126  0.624984230
     0.999983346  0.500009936  0.124980992
     0.999992668  0.500058398  0.625025788
     0.999957054  0.750017693  0.125047194
     0.999960588  0.750060611  0.625032616
     0.166643920  0.000015621  0.125034801
     0.166577174  0.000018661  0.625006567
     0.166714970  0.250041728  0.125135123
     0.166678910  0.250019600  0.625060841
     0.166686556  0.500018494  0.125073913
     0.166134435  0.500115221  0.625201412
     0.166604758  0.750026330  0.125106692
     0.166533138  0.750127772  0.625057630
     0.333328597  0.999967819  0.125048729
     0.333296362  0.999931929  0.625017302
     0.333360018  0.250005006  0.125152880
     0.333132278  0.249443775  0.625225086
     0.333423481  0.499951214  0.124844725
     0.332194825  0.500726610  0.625962118
     0.333320025  0.750004008  0.124990640
     0.332909763  0.750449824  0.625100552
     0.500000498  0.999955890  0.125038488
     0.499991516  0.999924411  0.625016995
     0.500000942  0.249904240  0.125241832
     0.499943076  0.249465614  0.625148517
     0.500014471  0.499990265  0.124654907
     0.499995675  0.750082488  0.124656559
     0.500034255  0.749785095  0.624962498
     0.666671929  0.999978746  0.125003006
     0.666689280  0.999947147  0.625000371
     0.666627905  0.250010598  0.125030374
     0.666737451  0.249558252  0.625118042
     0.666574928  0.499939611  0.124420101
     0.666307296  0.500798249  0.624798375
     0.666654688  0.750008934  0.124822948
     0.667048407  0.750473240  0.624884186
     0.833340313  0.000021444  0.125002216
     0.833406107  0.000047857  0.624994082
     0.833297011  0.250038913  0.125028068
     0.833256323  0.250065174  0.624981594
     0.833289579  0.499998219  0.124804477
     0.833800718  0.500121393  0.624913547
     0.833321787  0.750004608  0.124959339
     0.833389770  0.750122795  0.624943116
     0.083333294  0.125042121  0.125046291
     0.083300346  0.125044491  0.625007737
     0.083360350  0.375035134  0.125054551
     0.083431006  0.374996929  0.625055912
     0.083265589  0.625029229  0.125137532
     0.083189871  0.625062475  0.625070759
     0.083290367  0.875024065  0.125061837
     0.083254129  0.875068332  0.625029234
     0.250003546  0.125007643  0.125090682
     0.249903345  0.124832670  0.625061200
     0.250020608  0.375015762  0.125017003
     0.250694348  0.375001985  0.625207293
     0.249886747  0.625069602  0.125240002
     0.249642271  0.625206949  0.625137559
     0.249969878  0.875002948  0.125046341
     0.249831077  0.875152020  0.625036015
     0.416674029  0.124932770  0.125157429
     0.416611185  0.124770921  0.625080796
     0.416675110  0.375014560  0.124950228
     0.418345129  0.374043641  0.627067453
     0.416703439  0.625035739  0.124745876
     0.415381811  0.625618716  0.625671200
     0.416653776  0.874983989  0.124983012
     0.416660989  0.874976718  0.624995796
     0.583330332  0.124940597  0.125121142
     0.583344876  0.124793423  0.625062795
     0.583344160  0.375024862  0.124715854
     0.581322492  0.374363250  0.626753115
     0.583301000  0.625034543  0.124526139
     0.583867439  0.624593833  0.624744550
     0.583336792  0.874997258  0.124918724
     0.583323440  0.874983036  0.624963367
     0.749993695  0.125016682  0.125036511
     0.750046246  0.124878470  0.625035171
     0.750043829  0.374974987  0.124621314
     0.749094810  0.375139618  0.624943091
     0.750003866  0.625023414  0.124859345
     0.750120300  0.625133365  0.624758224
     0.749997735  0.875006685  0.124959116
     0.750153391  0.875186234  0.624976640
     0.916666848  0.125043966  0.125025247
     0.916664620  0.125063233  0.624998651
     0.916668389  0.375020670  0.124914062
     0.916469640  0.375015750  0.624970613
     0.916633330  0.625009875  0.124991653
     0.916692677  0.625055761  0.624956851
     0.916658354  0.875020623  0.125022183
     0.916690438  0.875072038  0.625002559
     0.000002616  0.083397052  0.458331513
     0.999981959  0.083364821  0.958374642
     0.000021474  0.333398773  0.458391077
     0.999960898  0.333348057  0.958318315
     0.000029538  0.583363350  0.458353438
     0.999907833  0.583359458  0.958386029
     0.999992297  0.833378876  0.458365719
     0.999952118  0.833359488  0.958387013
     0.166671523  0.083382511  0.458333304
     0.166627998  0.083319202  0.958388029
     0.166936859  0.333454504  0.458545008
     0.166625650  0.333309792  0.958365061
     0.166762817  0.583365549  0.458442216
     0.166472835  0.583387169  0.958565309
     0.166634389  0.833362545  0.458367828
     0.166569459  0.833366449  0.958421213
     0.333334702  0.083312351  0.458379744
     0.333292455  0.083218614  0.958446345
     0.334007893  0.333719753  0.459290111
     0.333265181  0.333228742  0.958408408
     0.333666980  0.583358190  0.458680413
     0.332853470  0.583518504  0.958803021
     0.333320083  0.833325032  0.458326418
     0.333278639  0.833317294  0.958335312
     0.500001202  0.083288880  0.458397898
     0.499987783  0.083209560  0.958439700
     0.500104231  0.333612581  0.458725992
     0.499921472  0.332853406  0.958804324
     0.500541431  0.582904608  0.458023423
     0.499972452  0.583236839  0.957498670
     0.500012991  0.833253174  0.458332286
     0.499978593  0.833318430  0.958212210
     0.666669991  0.083326075  0.458357186
     0.666676377  0.083230864  0.958408020
     0.666161288  0.333678222  0.459088290
     0.666593406  0.333265127  0.958135934
     0.666650003  0.583399158  0.458176700
     0.666701544  0.583371565  0.958014187
     0.666732032  0.833399244  0.458221440
     0.666649163  0.833302334  0.958229533
     0.833335893  0.083396036  0.458319805
     0.833332281  0.083330828  0.958359812
     0.833149664  0.333439248  0.458415378
     0.833281244  0.333319156  0.958144223
     0.833347787  0.583381138  0.458209189
     0.833272527  0.583346663  0.958209278
     0.833364720  0.833395823  0.458296615
     0.833321853  0.833339014  0.958329620
     0.083381837  0.208408900  0.458368501
     0.083324910  0.208347849  0.958399007
     0.083466886  0.458383329  0.458386134
     0.083296217  0.458336211  0.958371106
     0.083333086  0.708365922  0.458421555
     0.083259489  0.708361374  0.958441968
     0.083331842  0.958375632  0.458340854
     0.083300823  0.958354193  0.958386242
     0.250089757  0.208420778  0.458442522
     0.249964477  0.208275763  0.958460506
     0.250586695  0.458533424  0.458690351
     0.249943480  0.458300149  0.958371911
     0.250023986  0.708356607  0.458438632
     0.249848122  0.708406371  0.958515892
     0.249969225  0.958352543  0.458366008
     0.249952294  0.958301742  0.958405648
     0.416706773  0.208344070  0.458478886
     0.416602120  0.208101088  0.958612986
     0.418531038  0.459316433  0.459874919
     0.416854387  0.458100815  0.957586429
     0.416756404  0.708119711  0.458443034
     0.416609402  0.708330198  0.958181408
     0.416654227  0.958291901  0.458360132
     0.416633650  0.958273863  0.958364305
     0.583319411  0.208346307  0.458440557
     0.583329732  0.208127643  0.958539975
     0.582984121  0.459144185  0.458087366
     0.582897648  0.458164438  0.957082112
     0.583465282  0.708285990  0.458183485
     0.583287313  0.708295003  0.957996393
     0.583354603  0.958304432  0.458339024
     0.583346897  0.958277894  0.958332667
     0.749932410  0.208418970  0.458400018
     0.749972593  0.208300421  0.958367076
     0.749862068  0.458543696  0.458249588
[...]
 196      -0.005     0.001    -0.009      -0.695
 197      -0.004    -0.001    -0.022      -0.132
 198       0.001    -0.000    -0.002       0.917
 199       0.002    -0.001    -0.004       0.881
 200       0.001     0.001    -0.003       0.141
 201      -0.004     0.001     0.004       1.299
 202      -0.005     0.003    -0.014      -0.506
 203       0.009     0.006    -0.016       0.183
 204      -0.005     0.002    -0.009      -0.754
 205       0.004     0.001    -0.016       0.165
 206       0.002     0.000    -0.002       0.593
 207      -0.003     0.000     0.004       0.904
 208       0.004     0.001    -0.005       0.555
 209       0.006     0.005    -0.008       0.072
 210      -0.162    -0.151    -0.261      -0.042
 211      -0.037     0.032     0.042       1.645
 212       0.010     0.003    -0.010       0.694
 213       0.019     0.013    -0.035       0.181
 214       0.003     0.001    -0.004       0.476
 215       0.004     0.003    -0.008       0.092
 216       0.005    -0.002    -0.008       0.828
 217       0.007     0.004    -0.015       0.163
 218      -0.070    -0.068    -0.161      -0.013
 219      -0.067    -0.058    -0.155      -0.060
 220      -0.570    -0.557    -0.813      -0.017
 221       0.005     0.000    -0.006       0.841
 222       0.008     0.006    -0.010       0.175
 223      -0.005     0.001     0.005       1.068
 224       0.006     0.005    -0.011       0.128
 225      -0.061    -0.051    -0.144      -0.070
 226      -0.611    -0.597    -0.854      -0.016
 227      -0.020    -0.012    -0.044      -0.180
 228      -1.782    -1.754    -2.544      -0.011
 229      -0.004     0.000     0.005       0.982
 230      -0.002    -0.001    -0.019      -0.044
 231       0.002     0.001    -0.003       0.346
 232      -0.001     0.001    -0.010      -0.164
 233       0.006     0.001     0.016      -0.345
 234      -0.017    -0.016    -0.060      -0.024
 235      -0.030    -0.017    -0.053      -0.239
 236      -0.103    -0.100    -0.191      -0.018
 237       0.002     0.001    -0.003       0.419
 238      -0.015    -0.012    -0.027      -0.123
 239       0.002     0.000    -0.002       0.789
 240       0.003    -0.000    -0.003       1.154
 241       0.001    -0.001    -0.005       0.365
 242       0.004     0.002    -0.006       0.324
 243       0.007    -0.000    -0.007       1.032
 244       0.008     0.004    -0.026       0.159
 245      -0.002    -0.001    -0.005      -0.121
 246      -0.002     0.002    -0.007      -0.563
 247       0.002     0.001    -0.003       0.130
 248       0.003     0.001    -0.005       0.417
 249      -0.006    -0.003    -0.015      -0.254
 250       0.009     0.008    -0.011       0.073
 251      -0.010     0.001     0.013       0.827
 252       0.039    -0.010     0.049      -1.001
 253       0.003     0.001    -0.004       0.718
 254       0.005     0.004    -0.009       0.136
 255       0.004     0.001    -0.005       0.530
 256       0.003     0.003    -0.009       0.084
 257      -0.010     0.001     0.010       1.058
 258       0.021     0.015    -0.027       0.218
 259      -0.066    -0.061    -0.157      -0.027
 260      -0.006     0.002    -0.012      -0.623
 261      -0.003    -0.002    -0.034      -0.041
 262       0.005     0.001    -0.006       0.643
 263       0.005     0.004    -0.009       0.155
 264       0.010     0.002    -0.011       0.695
 265       0.011     0.005    -0.042       0.147
 266      -0.079    -0.076    -0.187      -0.013
 267       0.005    -0.000     0.014      -0.408
 268      -0.016    -0.014    -0.059      -0.039
 269       0.003     0.001    -0.004       0.430
 270       0.003     0.002    -0.007       0.100
 271      -0.004     0.003    -0.010      -0.666
 272      -0.008    -0.007    -0.038      -0.032
 273      -0.027    -0.017    -0.050      -0.198
 274      -1.703    -1.674    -2.452      -0.012
 275      -0.004    -0.002     0.005       0.260
 276      -0.124    -0.117    -0.197      -0.035
 277       0.002     0.001    -0.002       0.361
 278       0.002    -0.001    -0.005       0.650
 279       0.003    -0.000    -0.004       0.760
 280      -0.006     0.006     0.007       1.603
 281      -0.006    -0.003     0.008       0.421
 282      -0.094    -0.087    -0.175      -0.043
 283      -0.003     0.000    -0.006      -0.497
 284      -0.005    -0.004    -0.020      -0.063
 285       0.002     0.000    -0.002       0.694
 286       0.003    -0.001    -0.003       1.109
 287       0.001     0.001    -0.002       0.338
 288       0.002    -0.002    -0.006       0.720
 289       0.006    -0.003    -0.008       1.051
 290      -0.013    -0.010    -0.056      -0.069
 291      -0.002     0.001     0.004       0.844
 292       0.004     0.003    -0.007       0.227
 293       0.002     0.001    -0.002       0.393
 294       0.003    -0.000    -0.004       0.833
 295      -0.003     0.001     0.003       1.304
 296       0.002     0.001    -0.010       0.161
 297      -0.007    -0.000     0.009       0.760
 298      -0.005    -0.000    -0.051      -0.085
 299      -0.003     0.001     0.004       0.881
 300       0.006     0.004    -0.008       0.207
 301       0.003     0.001    -0.004       0.421
 302       0.002     0.002    -0.008       0.094
 303      -0.005     0.001     0.006       0.973
 304      -0.009    -0.007    -0.035      -0.052
 305      -0.013     0.012     0.017       1.409
 306      -0.270    -0.207    -0.445      -0.143
 307      -0.004    -0.001     0.006       0.619
 308       0.013     0.010    -0.017       0.157
 309       0.005     0.001    -0.005       0.757
 310       0.005     0.004    -0.009       0.134
 311      -0.012    -0.003    -0.018      -0.502
 312      -0.019     0.017     0.021       1.743
 313      -0.030     0.029     0.033       1.797
 314      -0.063    -0.050    -0.078      -0.172
 315       0.026     0.019    -0.035       0.211
 316       0.004     0.001    -0.005       0.641
 317       0.005     0.005    -0.008       0.071
 318      -0.005    -0.001     0.007       0.568
 319       0.014     0.011    -0.017       0.184
 320       0.024    -0.011     0.026      -1.335
 321       1.164     0.938     1.227      -0.184
 322      -0.006    -0.001     0.009       0.563
 323      -0.223    -0.217    -0.356      -0.016
 324       0.002     0.001    -0.003       0.155
 325      -0.004    -0.003    -0.013      -0.104
 326      -0.002     0.000     0.004       0.679
 327      -0.002    -0.001    -0.018      -0.051
 328      -0.006    -0.002     0.011       0.318
 329      -0.174    -0.167    -0.311      -0.024
 330       0.002     0.001     0.008      -0.107
 331       0.021    -0.002     0.023      -1.030
 332      -0.001     0.000     0.002       0.952
 333       0.003    -0.001    -0.003       1.160
 334       0.005    -0.000    -0.006       0.984
 335       0.005     0.004    -0.012       0.025
 336      -0.005     0.001     0.007       0.765
 337       0.009     0.008    -0.011       0.150
 338      -0.001    -0.000     0.002       0.363
 339      -0.002    -0.001     0.004       0.274
 340       0.002     0.001    -0.003       0.302
 341      -0.001     0.001    -0.009      -0.228
 342      -0.094    -0.085    -0.133      -0.064
 343       0.005    -0.001    -0.039       0.152
 344      -0.018    -0.008    -0.023      -0.432
 345      -0.019     0.018     0.021       1.788
 346       0.002     0.001    -0.003       0.472
 347       0.004     0.002    -0.007       0.279
 348      -0.005     0.001     0.005       1.140
 349       0.006     0.005    -0.009       0.080
 350      -0.014     0.011     0.015       1.713
 351      -0.069    -0.014    -0.162      -0.338
 352       0.030     0.005     0.034      -0.739
 353       0.086    -0.032     0.108      -1.099
 354      -0.004     0.001     0.006       0.707
 355       0.002     0.001    -0.018       0.045
 356      -0.005     0.000     0.005       1.027
 357       0.007     0.005    -0.011       0.155
 358       0.031     0.006     0.034      -0.734
 359       0.100    -0.022     0.121      -1.015
 360       0.018    -0.018     0.020      -1.793
 361       1.074     0.848     1.138      -0.198
 362       0.004    -0.003    -0.007       0.990
 363      -0.011     0.010     0.011       1.806
 364       0.003     0.001    -0.004       0.614
 365       0.004     0.004    -0.008       0.089
 366      -0.060    -0.047    -0.073      -0.181
 367       0.024     0.017    -0.036       0.203
 368      -0.150    -0.141    -0.190      -0.046
 369       0.152     0.062     0.162      -0.556
 370       0.003    -0.002    -0.005       0.809
 371      -0.039    -0.038    -0.069      -0.023
 372       0.001     0.001    -0.002       0.419
 373       0.004     0.000    -0.005       0.670
 374      -0.004     0.003    -0.007      -1.043
 375       0.010     0.008    -0.010       0.139
 376       0.002    -0.001     0.011      -0.263
 377       0.023    -0.005     0.025      -1.122
 378      -0.002     0.001     0.002       1.831
 379      -0.003     0.003     0.006       1.028
 380      -0.003    -0.000     0.003       0.691
 381      -0.002     0.000     0.002       1.014
 382       0.004     0.002    -0.008       0.290
 383       0.003    -0.000    -0.005       0.614
 384       0.008     0.004    -0.013       0.335
 385      -0.006     0.002     0.009       0.926
 386      -0.003     0.001     0.004       0.881
 387      -0.002     0.001     0.002       1.198
 388       0.003     0.000    -0.004       0.714
 389       0.002     0.001    -0.002       0.411
 390      -0.003    -0.001    -0.025      -0.082
 391      -0.015    -0.009    -0.022      -0.256
 392      -0.014     0.011     0.016       1.595
 393      -0.006    -0.001     0.008       0.709
 394       0.004     0.001    -0.005       0.533
 395       0.002     0.001    -0.002       0.304
 396       0.004     0.003    -0.007       0.086
 397       0.003     0.001    -0.004       0.449
 398       0.056     0.018     0.064      -0.590
 399      -0.008     0.001     0.009       1.043
 400       0.089     0.001     0.101      -0.871
 401      -0.025    -0.014    -0.054      -0.205
 402       0.002     0.001    -0.016       0.037
 403      -0.004     0.002     0.005       1.069
 404       0.007     0.005    -0.009       0.203
 405       0.005     0.001    -0.006       0.694
 406       0.089     0.002     0.101      -0.862
 407      -0.006     0.002    -0.031      -0.259
 408       1.072     0.842     1.135      -0.202
 409       0.063     0.015     0.070      -0.676
 410      -0.010     0.010     0.014       1.462
 411       0.004    -0.004    -0.013       0.611
 412       0.005     0.004    -0.008       0.113
 413       0.004     0.001    -0.005       0.577
 414      -0.028     0.022     0.030       1.670
 415       0.009    -0.009     0.015      -1.203
 416       0.136     0.052     0.173      -0.487
 417      -0.550    -0.547    -0.800      -0.004
 418       0.005     0.002    -0.017       0.207
 419      -0.005    -0.000    -0.016      -0.305
 420       0.002    -0.000    -0.006       0.313
 421       0.002     0.001    -0.004       0.149
 422       0.009    -0.009     0.012      -1.460
 423       0.004    -0.002    -0.010       0.674
 424       0.019    -0.013     0.028      -1.155
 425       0.018    -0.000     0.028      -0.648
 426       0.004     0.003    -0.008       0.095
 427       0.004    -0.003     0.005      -1.380
 428       0.003    -0.001    -0.005       0.767
 429       0.001     0.000    -0.001       0.785
 430       0.009     0.004    -0.014       0.310
 431       0.005    -0.002    -0.009       0.818
 432       0.006     0.004    -0.007       0.229
 433       0.004     0.001    -0.004       0.801
 434      -0.002    -0.000     0.003       0.639
 435      -0.002     0.000     0.002       0.847
 436       0.007    -0.005     0.007      -1.607
 437       0.003     0.001    -0.003       0.740
 438       0.058     0.017     0.070      -0.587
 439      -0.009    -0.001     0.010       0.792
 440       0.012     0.011    -0.012       0.055
 441      -0.006     0.001     0.006       1.031
 442       0.002     0.000    -0.006       0.278
 443       0.002     0.001    -0.003       0.139
 444      -0.012     0.011     0.013       1.747
 445      -0.006    -0.000     0.006       0.959
 446       0.412    -0.130     0.445      -1.217
 447       0.018     0.008    -0.035       0.286
 448       0.028     0.019    -0.031       0.271
 449      -0.009     0.009     0.015       1.252
 450       0.005     0.004    -0.008       0.155
 451       0.004     0.001    -0.005       0.598
 452       0.013     0.011    -0.013       0.147
 453      -0.007     0.000     0.007       1.010
 454       1.153     0.928     1.216      -0.185
 455       0.057     0.010     0.062      -0.764
 456       0.085     0.057     0.109      -0.258
 457       0.016    -0.013     0.023      -1.313
 458       0.006     0.004    -0.009       0.228
 459       0.005     0.001    -0.007       0.574
 460       0.002     0.001    -0.015       0.019
 461      -0.004     0.002     0.006       1.057
 462       0.087     0.057     0.112      -0.264
 463       0.016    -0.013     0.023      -1.250
 464       0.020    -0.011     0.026      -1.187
 465       0.019     0.001     0.025      -0.711
 466       0.002     0.002    -0.008       0.059
 467       0.002     0.000    -0.006       0.298
 468       0.004     0.001    -0.004       0.628
 469       0.002     0.001    -0.002       0.078
 470       0.004    -0.001    -0.023       0.253
 471      -0.007     0.001    -0.018      -0.421
 472      -0.008     0.006     0.009       1.599
 473       0.006     0.002    -0.007       0.636
 474       0.003     0.000    -0.004       0.615
 475       0.002     0.001    -0.002       0.442
 476      -0.001    -0.001     0.002       0.205
 477       0.002    -0.001    -0.003       1.174
 478      -0.007     0.002     0.008       1.156
 479       0.009     0.004    -0.009       0.476
 480      -0.006     0.002     0.006       1.165
 481       0.008     0.005    -0.008       0.371
 482      -0.002    -0.000     0.002       0.742
 483      -0.002    -0.000     0.003       0.739
 484       0.003     0.001    -0.003       0.418
 485       0.002     0.001    -0.004       0.502
 486       0.011     0.004    -0.011       0.601
 487       0.009     0.004    -0.011       0.503
 488      -0.008     0.004     0.008       1.432
 489       0.008     0.004    -0.009       0.402
 490       0.002    -0.000    -0.003       0.503
 491      -0.003     0.000     0.003       1.019
 492       0.004     0.002    -0.008       0.217
 493       0.005     0.003    -0.007       0.197
 494      -0.544    -0.538    -0.780      -0.007
 495       0.021     0.013    -0.027       0.303
 496      -0.017     0.013     0.018       1.589
 497       0.017    -0.016     0.021      -1.549
 498       0.004     0.002    -0.005       0.283
 499       0.003     0.002    -0.007       0.101
 500       0.008     0.004    -0.008       0.480
 501       0.008     0.005    -0.009       0.388
 502       0.122     0.026     0.126      -0.759
 503      -0.054     0.000    -0.150      -0.361
 504      -0.203    -0.195    -0.340      -0.023
 505       0.089    -0.002     0.095      -0.956
 506       0.006     0.002    -0.007       0.569
 507      -0.003    -0.000    -0.018      -0.181
 508       0.004     0.002    -0.009       0.292
 509       0.006     0.004    -0.009       0.269
 510      -0.188    -0.180    -0.318      -0.027
 511       0.090     0.001     0.097      -0.923
 512       0.016    -0.014     0.024      -1.208
 513       0.127     0.035     0.134      -0.686
 514       0.005     0.002    -0.006       0.587
 515       0.007     0.005    -0.008       0.227
 516       0.003     0.002    -0.004       0.100
 517       0.003     0.002    -0.006       0.159
 518       0.004    -0.004    -0.019       0.402
 519       0.016     0.012    -0.020       0.186
 520      -0.005     0.003    -0.018      -0.486
 521       0.014     0.010    -0.022       0.194
 522       0.002     0.002    -0.003       0.187
 523       0.004     0.004    -0.005       0.158
 524       0.002     0.000    -0.002       0.916
 525      -0.002    -0.000     0.003       0.890
 526       0.003     0.001    -0.006       0.311
 527      -0.003    -0.002    -0.010      -0.116
 528       0.008     0.001    -0.010       0.637
 529      -0.010     0.005     0.011       1.388
 530      -0.003     0.001     0.003       1.410
 531       0.003     0.001    -0.004       0.695
 532       0.002     0.001    -0.004       0.199
 533       0.003     0.001    -0.004       0.313
 534       0.007    -0.007     0.010      -1.395
 535       0.006     0.004    -0.009       0.262
 536       0.017     0.010    -0.020       0.336
 537      -0.014     0.009     0.023       0.979
 538       0.003     0.002    -0.007       0.109
 539       0.005     0.004    -0.007       0.101
 540       0.005     0.003    -0.006       0.374
 541       0.004     0.002    -0.007       0.229
 542       0.016     0.011    -0.018       0.248
 543      -0.013     0.011     0.019       1.240
 544       0.111     0.013     0.113      -0.868
 545      -0.282    -0.213    -0.443      -0.157
 546      -0.008     0.007     0.012       1.214
 547       0.012     0.009    -0.013       0.240
 548       0.005     0.002    -0.007       0.438
 549       0.005     0.003    -0.008       0.294
 550      -0.017     0.013     0.018       1.607
 551      -0.018     0.015     0.020       1.608
 552       0.133     0.038     0.144      -0.662
 553       0.407    -0.149     0.438      -1.270
 554       0.005    -0.002    -0.018       0.372
 555       0.017     0.014    -0.019       0.155
 556       0.003     0.002    -0.005       0.223
 557       0.004     0.003    -0.006       0.149
 558      -0.007     0.007     0.011       1.296
 559      -0.012     0.010     0.012       1.761
 560      -0.015     0.014     0.025       1.184
 561       0.133     0.040     0.143      -0.643
 562      -0.005     0.003     0.008       1.102
 563       0.019    -0.003     0.023      -0.952
 564       0.002     0.001    -0.003       0.590
 565       0.003     0.001    -0.003       0.660
 566       0.004     0.002    -0.005       0.422
 567      -0.003    -0.002    -0.014      -0.072
 568      -0.008     0.002     0.011       0.951
 569       0.018    -0.006     0.026      -0.927
 570       0.003     0.002    -0.003       0.370
 571       0.005     0.004    -0.006       0.181
 572       0.624     0.555     0.752      -0.092
 573      -0.242    -0.037     0.399       0.512
 574     -14.747   -14.703   -25.652      -0.002
 575     -14.771   -14.732   -25.890      -0.002
 576       0.604     0.524     0.726      -0.110
 ---------------------------------------------------------------------



--------------------------------------------------------------------------------------------------------


     LOOP+:  cpu time 1534.7920: real time 1539.1411
    4ORBIT:  cpu time    0.0000: real time    0.0000

 total amount of memory used by VASP MPI-rank0   238704. kBytes
=======================================================================

   base      :      30000. kBytes
   nonlr-proj:       9227. kBytes
   fftplans  :      15014. kBytes
   grid      :      46644. kBytes
   one-center:        294. kBytes
   wavefun   :     137525. kBytes
 
  
  
 General timing and accounting informations for this job:
 ========================================================
  
                  Total CPU time used (sec):     1564.363
                            User time (sec):     1563.221
                          System time (sec):        1.142
                         Elapsed time (sec):     1569.424
  
                   Maximum memory used (kb):      437048.
                   Average memory used (kb):          N/A
  
                          Minor page faults:       198220
                          Major page faults:            0
                 Voluntary context switches:        15924
