 vasp.6.2.0 18Jan21 (build Apr 30 2021 19:00:08) gamma-only                     
  
 executed on             LinuxIFC date 2022.12.30  12:15:12
 running on   24 total cores
 distrk:  each k-point on   24 cores,    1 groups
 distr:  one band on NCORE=   6 cores,    4 groups


--------------------------------------------------------------------------------------------------------


 INCAR:
   SYSTEM = Diamond
   PREC = Normal
   ISTART = 0
   ICHARG = 11
   ISPIN = 2
   MAGMOM = 572*0.0 1*2.0 2*2.0 1*3
   NPAR = 4
   NELECT = 2303
   LHYPERFINE = T
   LEFG = T
   ENCUT = 700
   NELM = 1000
   NELMIN = 4
   EDIFF = 1E-06
   LREAL = Auto
   ALGO = Normal
   EDIFFG = -1E-02
   NSW = 0
   IBRION = 2
   ISIF = 2
   ISYM = 2
   POTIM = 0.5
   ISMEAR = 0
   SIGMA = 0.05
   NEDOS = 1000
   LWAVE = F
   LCHARG = F
   LVHAR = F
   LELF = F

 POTCAR:    PAW_PBE C 08Apr2002                   
 POTCAR:    PAW_PBE H 15Jun2001                   
 POTCAR:    PAW_PBE C 08Apr2002                   
 POTCAR:    PAW_PBE N 08Apr2002                   
 POTCAR:    PAW_PBE C 08Apr2002                   
   VRHFIN =C: s2p2                                                                                  
   LEXCH  = PE                                                                                      
   EATOM  =   147.1560 eV,   10.8157 Ry                                                             
                                                                                                    
   TITEL  = PAW_PBE C 08Apr2002                                                                     
   LULTRA =        F    use ultrasoft PP ?                                                          
   IUNSCR =        1    unscreen: 0-lin 1-nonlin 2-no                                               
   RPACOR =    1.200    partial core radius                                                         
   POMASS =   12.011; ZVAL   =    4.000    mass and valenz                                          
   RCORE  =    1.500    outmost cutoff radius                                                       
   RWIGS  =    1.630; RWIGS  =    0.863    wigner-seitz radius (au A)                               
   ENMAX  =  400.000; ENMIN  =  300.000 eV                                                          
   ICORE  =        2    local potential                                                             
   LCOR   =        T    correct aug charges                                                         
   LPAW   =        T    paw PP                                                                      
   EAUG   =  644.873                                                                                
   DEXC   =    0.000                                                                                
   RMAX   =    1.529    core radius for proj-oper                                                   
   RAUG   =    1.300    factor for augmentation sphere                                              
   RDEP   =    1.501    radius for radial grids                                                     
   RDEPT  =    1.300    core radius for aug-charge                                                  
                                                                                                    
   Atomic configuration                                                                             
    4 entries                                                                                       
     n  l   j            E        occ.                                                              
     1  0  0.50      -273.3789   2.0000                                                             
     2  0  0.50       -13.7508   2.0000                                                             
     2  1  0.50        -5.2854   2.0000                                                             
     3  2  1.50        -5.4423   0.0000                                                             
   Description                                                                                      
     l       E           TYP  RCUT    TYP  RCUT                                                     
     0    -13.7508458     23  1.200                                                                 
     0     -8.2022199     23  1.200                                                                 
     1     -5.2854383     23  1.500                                                                 
     1     34.0145650     23  1.500                                                                 
     2     -5.4423304      7  1.500                                                                 
  local pseudopotential read in
  partial core-charges read in
  partial kinetic energy density read in
  atomic valenz-charges read in
  non local Contribution for L=           0  read in
    real space projection operators read in
  non local Contribution for L=           0  read in
    real space projection operators read in
  non local Contribution for L=           1  read in
    real space projection operators read in
  non local Contribution for L=           1  read in
    real space projection operators read in
    PAW grid and wavefunctions read in
 
   number of l-projection  operators is LMAX  =           4
   number of lm-projection operators is LMMAX =           8
 
 POTCAR:    PAW_PBE H 15Jun2001                   
   VRHFIN =H: ultrasoft test                                                                        
   LEXCH  = PE                                                                                      
   EATOM  =    12.4884 eV,    0.9179 Ry                                                             
                                                                                                    
   TITEL  = PAW_PBE H 15Jun2001                                                                     
   LULTRA =        F    use ultrasoft PP ?                                                          
   IUNSCR =        0    unscreen: 0-lin 1-nonlin 2-no                                               
   RPACOR =    0.000    partial core radius                                                         
   POMASS =    1.000; ZVAL   =    1.000    mass and valenz                                          
   RCORE  =    1.100    outmost cutoff radius                                                       
   RWIGS  =    0.700; RWIGS  =    0.370    wigner-seitz radius (au A)                               
   ENMAX  =  250.000; ENMIN  =  200.000 eV                                                          
   RCLOC  =    0.701    cutoff for local pot                                                        
   LCOR   =        T    correct aug charges                                                         
   LPAW   =        T    paw PP                                                                      
   EAUG   =  400.000                                                                                
   RMAX   =    1.123    core radius for proj-oper                                                   
   RAUG   =    1.200    factor for augmentation sphere                                              
   RDEP   =    1.112    radius for radial grids                                                     
   RDEPT  =    0.926    core radius for aug-charge                                                  
                                                                                                    
   Atomic configuration                                                                             
    2 entries                                                                                       
     n  l   j            E        occ.                                                              
     1  0  0.50        -6.4927   1.0000                                                             
     2  1  0.50        -3.4015   0.0000                                                             
   Description                                                                                      
     l       E           TYP  RCUT    TYP  RCUT                                                     
     0     -6.4927494     23  1.100                                                                 
     0      6.8029130     23  1.100                                                                 
     1     -4.0817478     23  1.100                                                                 
  local pseudopotential read in
  atomic valenz-charges read in
  non local Contribution for L=           0  read in
    real space projection operators read in
  non local Contribution for L=           0  read in
    real space projection operators read in
  non local Contribution for L=           1  read in
    real space projection operators read in
    PAW grid and wavefunctions read in
 
   number of l-projection  operators is LMAX  =           3
   number of lm-projection operators is LMMAX =           5
 
 POTCAR:    PAW_PBE C 08Apr2002                   
   VRHFIN =C: s2p2                                                                                  
   LEXCH  = PE                                                                                      
   EATOM  =   147.1560 eV,   10.8157 Ry                                                             
                                                                                                    
   TITEL  = PAW_PBE C 08Apr2002                                                                     
   LULTRA =        F    use ultrasoft PP ?                                                          
   IUNSCR =        1    unscreen: 0-lin 1-nonlin 2-no                                               
   RPACOR =    1.200    partial core radius                                                         
   POMASS =   12.011; ZVAL   =    4.000    mass and valenz                                          
   RCORE  =    1.500    outmost cutoff radius                                                       
   RWIGS  =    1.630; RWIGS  =    0.863    wigner-seitz radius (au A)                               
   ENMAX  =  400.000; ENMIN  =  300.000 eV                                                          
   ICORE  =        2    local potential                                                             
   LCOR   =        T    correct aug charges                                                         
   LPAW   =        T    paw PP                                                                      
   EAUG   =  644.873                                                                                
   DEXC   =    0.000                                                                                
   RMAX   =    1.529    core radius for proj-oper                                                   
   RAUG   =    1.300    factor for augmentation sphere                                              
   RDEP   =    1.501    radius for radial grids                                                     
   RDEPT  =    1.300    core radius for aug-charge                                                  
                                                                                                    
   Atomic configuration                                                                             
    4 entries                                                                                       
     n  l   j            E        occ.                                                              
     1  0  0.50      -273.3789   2.0000                                                             
     2  0  0.50       -13.7508   2.0000                                                             
     2  1  0.50        -5.2854   2.0000                                                             
     3  2  1.50        -5.4423   0.0000                                                             
   Description                                                                                      
     l       E           TYP  RCUT    TYP  RCUT                                                     
     0    -13.7508458     23  1.200                                                                 
     0     -8.2022199     23  1.200                                                                 
     1     -5.2854383     23  1.500                                                                 
     1     34.0145650     23  1.500                                                                 
     2     -5.4423304      7  1.500                                                                 
  local pseudopotential read in
  partial core-charges read in
  partial kinetic energy density read in
  atomic valenz-charges read in
  non local Contribution for L=           0  read in
    real space projection operators read in
  non local Contribution for L=           0  read in
    real space projection operators read in
  non local Contribution for L=           1  read in
    real space projection operators read in
  non local Contribution for L=           1  read in
    real space projection operators read in
    PAW grid and wavefunctions read in
 
   number of l-projection  operators is LMAX  =           4
   number of lm-projection operators is LMMAX =           8
 
 POTCAR:    PAW_PBE N 08Apr2002                   
   VRHFIN =N: s2p3                                                                                  
   LEXCH  = PE                                                                                      
   EATOM  =   264.5486 eV,   19.4438 Ry                                                             
                                                                                                    
   TITEL  = PAW_PBE N 08Apr2002                                                                     
   LULTRA =        F    use ultrasoft PP ?                                                          
   IUNSCR =        1    unscreen: 0-lin 1-nonlin 2-no                                               
   RPACOR =    1.200    partial core radius                                                         
   POMASS =   14.001; ZVAL   =    5.000    mass and valenz                                          
   RCORE  =    1.500    outmost cutoff radius                                                       
   RWIGS  =    1.400; RWIGS  =    0.741    wigner-seitz radius (au A)                               
   ENMAX  =  400.000; ENMIN  =  300.000 eV                                                          
   ICORE  =        2    local potential                                                             
   LCOR   =        T    correct aug charges                                                         
   LPAW   =        T    paw PP                                                                      
   EAUG   =  627.112                                                                                
   DEXC   =    0.000                                                                                
   RMAX   =    1.529    core radius for proj-oper                                                   
   RAUG   =    1.300    factor for augmentation sphere                                              
   RDEP   =    1.514    radius for radial grids                                                     
   RDEPT  =    1.338    core radius for aug-charge                                                  
                                                                                                    
   Atomic configuration                                                                             
    4 entries                                                                                       
     n  l   j            E        occ.                                                              
     1  0  0.50      -384.7179   2.0000                                                             
     2  0  0.50       -18.5828   2.0000                                                             
     2  1  0.50        -7.0898   3.0000                                                             
     3  2  1.50        -6.8029   0.0000                                                             
   Description                                                                                      
     l       E           TYP  RCUT    TYP  RCUT                                                     
     0    -18.5828119     23  1.200                                                                 
     0    -13.5018863     23  1.200                                                                 
     1     -7.0897853     23  1.500                                                                 
     1      9.5240782     23  1.500                                                                 
     2     -6.8029130      7  1.500                                                                 
  local pseudopotential read in
  partial core-charges read in
  partial kinetic energy density read in
  atomic valenz-charges read in
  non local Contribution for L=           0  read in
    real space projection operators read in
  non local Contribution for L=           0  read in
    real space projection operators read in
  non local Contribution for L=           1  read in
    real space projection operators read in
  non local Contribution for L=           1  read in
    real space projection operators read in
    PAW grid and wavefunctions read in
 
   number of l-projection  operators is LMAX  =           4
   number of lm-projection operators is LMMAX =           8
 
 Optimization of the real space projectors (new method)

 maximal supplied QI-value         = 25.13
 optimisation between [QCUT,QGAM] = [ 13.32, 26.89] = [ 49.69,202.52] Ry 
 Optimized for a Real-space Cutoff    1.01 Angstroem

   l    n(q)    QCUT    max X(q) W(low)/X(q) W(high)/X(q)  e(spline) 
   0      8    13.321   115.676    0.29E-03    0.42E-03    0.11E-06
   0      8    13.321    87.132    0.29E-03    0.42E-03    0.11E-06
   1      8    13.321     4.429    0.39E-03    0.33E-03    0.98E-07
   1      8    13.321     2.733    0.30E-03    0.26E-03    0.97E-07
 Optimization of the real space projectors (new method)

 maximal supplied QI-value         = 34.20
 optimisation between [QCUT,QGAM] = [ 13.34, 27.02] = [ 49.83,204.46] Ry 
 Optimized for a Real-space Cutoff    0.93 Angstroem

   l    n(q)    QCUT    max X(q) W(low)/X(q) W(high)/X(q)  e(spline) 
   0      7    13.340    19.460    0.47E-03    0.72E-04    0.17E-06
   0      7    13.340    12.209    0.45E-03    0.63E-04    0.16E-06
   1      7    13.340     4.655    0.21E-03    0.61E-03    0.12E-06
 Optimization of the real space projectors (new method)

 maximal supplied QI-value         = 25.13
 optimisation between [QCUT,QGAM] = [ 13.32, 26.89] = [ 49.69,202.52] Ry 
 Optimized for a Real-space Cutoff    1.01 Angstroem

   l    n(q)    QCUT    max X(q) W(low)/X(q) W(high)/X(q)  e(spline) 
   0      8    13.321   115.676    0.29E-03    0.42E-03    0.11E-06
   0      8    13.321    87.132    0.29E-03    0.42E-03    0.11E-06
   1      8    13.321     4.429    0.39E-03    0.33E-03    0.98E-07
   1      8    13.321     2.733    0.30E-03    0.26E-03    0.97E-07
 Optimization of the real space projectors (new method)

 maximal supplied QI-value         = 25.13
 optimisation between [QCUT,QGAM] = [ 13.32, 26.89] = [ 49.69,202.52] Ry 
 Optimized for a Real-space Cutoff    1.01 Angstroem

   l    n(q)    QCUT    max X(q) W(low)/X(q) W(high)/X(q)  e(spline) 
   0      8    13.321    79.467    0.28E-03    0.38E-03    0.11E-06
   0      8    13.321    66.151    0.27E-03    0.38E-03    0.11E-06
   1      8    13.321    23.070    0.40E-03    0.78E-03    0.29E-06
   1      8    13.321    16.668    0.40E-03    0.79E-03    0.30E-06
  PAW_PBE C 08Apr2002                   :
 energy of atom  1       EATOM= -147.1560
 kinetic energy error for atom=    0.0032 (will be added to EATOM!!)
  PAW_PBE H 15Jun2001                   :
 energy of atom  2       EATOM=  -12.4884
 kinetic energy error for atom=    0.0002 (will be added to EATOM!!)
  PAW_PBE C 08Apr2002                   :
 energy of atom  3       EATOM= -147.1560
 kinetic energy error for atom=    0.0032 (will be added to EATOM!!)
  PAW_PBE N 08Apr2002                   :
 energy of atom  4       EATOM= -264.5486
 kinetic energy error for atom=    0.0061 (will be added to EATOM!!)
 
 
 POSCAR: Autosave
  positions in direct lattice
  velocities in cartesian coordinates
 exchange correlation table for  LEXCH =        8
   RHO(1)=    0.500       N(1)  =     2000
   RHO(2)=  100.500       N(2)  =     4000
 


--------------------------------------------------------------------------------------------------------


 ion  position               nearest neighbor table
   1  0.000  0.000  0.000- 285 1.55 475 1.55 381 1.55 435 1.55
   2  1.000  0.000  0.500- 286 1.55 380 1.55 474 1.55 434 1.55
   3  1.000  0.250  0.000- 287 1.55 469 1.55 383 1.55 429 1.55
   4  1.000  0.250  0.500- 288 1.55 468 1.55 382 1.55 428 1.55
   5  0.000  0.500  0.000- 289 1.55 471 1.55 385 1.55 431 1.55
   6  1.000  0.500  0.500- 290 1.55 384 1.55 470 1.55 430 1.55
   7  0.000  0.750  0.000- 473 1.55 291 1.55 387 1.55 433 1.55
   8  0.000  0.750  0.500- 292 1.55 472 1.55 432 1.55 386 1.55
   9  0.167  1.000  0.000- 293 1.55 435 1.55 389 1.55 443 1.55
  10  0.167  0.000  0.500- 434 1.55 388 1.55 294 1.55 442 1.55
  11  0.167  0.250  1.000- 429 1.55 295 1.55 437 1.55 391 1.55
  12  0.167  0.250  0.500- 296 1.55 428 1.55 436 1.55 390 1.55
  13  0.167  0.500  1.000- 297 1.55 431 1.55 393 1.55 439 1.55
  14  0.166  0.500  0.500- 430 1.54 298 1.55 392 1.55 438 1.55
  15  0.167  0.750  0.000- 299 1.55 433 1.55 395 1.55 441 1.55
  16  0.167  0.750  0.500- 394 1.55 432 1.55 300 1.55 440 1.55
  17  0.333  1.000  0.000- 397 1.55 301 1.55 443 1.55 451 1.55
  18  0.333  1.000  0.500- 302 1.55 442 1.55 396 1.55 450 1.55
  19  0.333  0.250  0.000- 303 1.55 445 1.55 437 1.55 399 1.55
  20  0.333  0.250  0.500- 436 1.55 444 1.55 304 1.55 398 1.55
  21  0.333  0.500  1.000- 305 1.55 439 1.55 401 1.55 447 1.55
  22  0.333  0.500  0.500- 438 1.54 400 1.54 446 1.55 306 1.55
  23  0.333  0.750  1.000- 307 1.55 403 1.55 441 1.55 449 1.55
  24  0.333  0.750  0.500- 402 1.54 308 1.55 440 1.55 448 1.55
  25  0.500  1.000  0.000- 405 1.55 309 1.55 459 1.55 451 1.55
  26  0.500  1.000  0.500- 310 1.55 404 1.55 458 1.55 450 1.55
  27  0.500  0.250  0.000- 407 1.54 311 1.54 453 1.55 445 1.55
  28  0.500  0.250  0.500- 312 1.55 452 1.55 444 1.55 406 1.55
  29  0.500  0.500  0.999- 409 1.54 455 1.55 447 1.55 313 1.55
  30  0.500  0.750  1.000- 314 1.54 411 1.55 457 1.55 449 1.55
  31  0.500  0.750  0.500- 315 1.54 456 1.54 448 1.55 410 1.55
  32  0.667  1.000  0.000- 413 1.55 316 1.55 467 1.55 459 1.55
  33  0.667  1.000  0.500- 317 1.55 466 1.55 458 1.55 412 1.55
  34  0.667  0.250  0.000- 318 1.55 461 1.55 453 1.55 415 1.55
  35  0.667  0.250  0.500- 452 1.55 460 1.55 319 1.55 414 1.55
  36  0.667  0.500  0.000- 320 1.55 463 1.55 417 1.55 455 1.55
  37  0.665  0.501  0.501- 416 1.54 454 1.55 321 1.56 462 1.56
  38  0.667  0.750  0.000- 322 1.55 419 1.55 465 1.55 457 1.55
  39  0.667  0.750  0.500- 323 1.55 464 1.55 418 1.55 456 1.55
  40  0.833  1.000  0.000- 324 1.55 475 1.55 421 1.55 467 1.55
  41  0.833  1.000  0.500- 474 1.55 325 1.55 420 1.55 466 1.55
  42  0.833  0.250  0.000- 326 1.55 469 1.55 461 1.55 423 1.55
  43  0.833  0.250  0.500- 327 1.55 460 1.55 422 1.55 468 1.55
  44  0.833  0.500  0.000- 328 1.55 471 1.55 463 1.55 425 1.55
  45  0.833  0.500  0.500- 329 1.55 424 1.55 470 1.55 462 1.55
  46  0.833  0.750  0.000- 465 1.54 330 1.55 427 1.55 473 1.55
  47  0.833  0.750  0.500- 472 1.55 426 1.55 331 1.55 464 1.55
  48  0.083  0.125  0.000- 332 1.55 381 1.55 429 1.55 389 1.55
  49  0.083  0.125  0.500- 380 1.55 333 1.55 428 1.55 388 1.55
  50  0.083  0.375  1.000- 383 1.55 334 1.55 431 1.55 391 1.55
  51  0.083  0.375  0.500- 335 1.55 382 1.55 430 1.55 390 1.55
  52  0.083  0.625  0.000- 385 1.55 336 1.55 433 1.55 393 1.55
  53  0.083  0.625  0.500- 384 1.55 337 1.55 392 1.55 432 1.55
  54  0.083  0.875  0.000- 387 1.55 338 1.55 435 1.55 395 1.55
  55  0.083  0.875  0.500- 386 1.55 434 1.55 339 1.55 394 1.55
  56  0.250  0.125  0.000- 340 1.55 389 1.55 437 1.55 397 1.55
  57  0.250  0.125  0.500- 388 1.55 341 1.55 396 1.55 436 1.55
  58  0.250  0.375  1.000- 342 1.54 391 1.55 399 1.55 439 1.55
  59  0.250  0.375  0.500- 343 1.55 398 1.55 390 1.55 438 1.55
  60  0.250  0.625  1.000- 344 1.54 401 1.55 441 1.55 393 1.55
  61  0.250  0.625  0.500- 440 1.55 345 1.55 392 1.55 400 1.55
  62  0.250  0.875  1.000- 443 1.55 346 1.55 395 1.55 403 1.55
  63  0.250  0.875  0.500- 442 1.55 394 1.55 347 1.55 402 1.55
  64  0.417  0.125  0.000- 445 1.55 348 1.55 405 1.55 397 1.55
  65  0.417  0.125  0.500- 349 1.55 396 1.55 404 1.55 444 1.55
  66  0.417  0.375  1.000- 350 1.55 399 1.55 407 1.55 447 1.55
  67  0.417  0.375  0.500- 406 1.54 398 1.55 351 1.55 446 1.56
  68  0.417  0.625  0.999- 449 1.55 401 1.55 352 1.55 409 1.55
  69  0.417  0.625  0.500- 448 1.54 400 1.55 408 1.55 353 1.55
  70  0.417  0.875  1.000- 451 1.55 354 1.55 411 1.55 403 1.55
  71  0.417  0.875  0.500- 355 1.55 410 1.55 450 1.55 402 1.55
  72  0.583  0.125  0.000- 453 1.55 356 1.55 413 1.55 405 1.55
  73  0.583  0.125  0.500- 357 1.55 412 1.55 404 1.55 452 1.55
  74  0.583  0.375  1.000- 415 1.55 358 1.55 407 1.55 455 1.55
  75  0.583  0.375  0.501- 406 1.54 359 1.55 414 1.55 454 1.55
  76  0.583  0.625  1.000- 457 1.55 417 1.55 360 1.55 409 1.55
  77  0.583  0.624  0.501- 416 1.54 408 1.55 456 1.56 361 1.56
  78  0.583  0.875  0.000- 459 1.55 419 1.55 362 1.55 411 1.55
  79  0.583  0.875  0.500- 363 1.55 418 1.55 410 1.55 458 1.55
  80  0.750  0.125  0.000- 364 1.55 421 1.55 461 1.55 413 1.55
  81  0.750  0.125  0.500- 365 1.55 420 1.55 412 1.55 460 1.55
  82  0.750  0.375  0.000- 366 1.55 423 1.55 463 1.55 415 1.55
  83  0.750  0.375  0.500- 367 1.54 462 1.54 414 1.55 422 1.55
  84  0.750  0.625  0.001- 417 1.54 368 1.54 425 1.55 465 1.55
  85  0.750  0.625  0.500- 424 1.55 464 1.55 369 1.55 416 1.55
  86  0.750  0.875  0.000- 370 1.55 467 1.55 427 1.55 419 1.55
  87  0.750  0.875  0.500- 426 1.55 371 1.55 466 1.55 418 1.55
  88  0.917  0.125  0.000- 372 1.55 469 1.55 381 1.55 421 1.55
  89  0.917  0.125  0.500- 373 1.55 420 1.55 380 1.55 468 1.55
  90  0.917  0.375  0.000- 423 1.55 471 1.55 374 1.55 383 1.55
  91  0.917  0.375  0.500- 375 1.55 470 1.55 422 1.55 382 1.55
  92  0.917  0.625  0.000- 425 1.54 376 1.55 385 1.55 473 1.55
  93  0.917  0.625  0.500- 384 1.55 377 1.55 472 1.55 424 1.55
  94  0.917  0.875  0.000- 427 1.55 378 1.55 475 1.55 387 1.55
  95  0.917  0.875  0.500- 386 1.55 474 1.55 379 1.55 426 1.55
  96  1.000  0.083  0.333- 380 1.55 476 1.55 564 1.55 524 1.55
  97  0.000  0.083  0.833- 477 1.55 381 1.55 565 1.55 525 1.55
  98  1.000  0.333  0.333- 382 1.55 566 1.55 478 1.55 526 1.55
  99  0.000  0.333  0.833- 383 1.55 567 1.55 479 1.55 527 1.55
 100  1.000  0.583  0.333- 384 1.55 568 1.55 480 1.55 528 1.55
 101  0.000  0.583  0.833- 569 1.54 529 1.55 385 1.55 481 1.55
 102  1.000  0.833  0.333- 386 1.55 482 1.55 570 1.55 530 1.55
 103  0.000  0.833  0.833- 571 1.55 387 1.55 483 1.55 531 1.55
 104  0.167  0.083  0.333- 388 1.55 524 1.55 484 1.55 532 1.55
 105  0.167  0.083  0.833- 525 1.55 389 1.55 485 1.55 533 1.55
 106  0.167  0.333  0.333- 526 1.55 390 1.55 534 1.55 486 1.55
 107  0.167  0.333  0.833- 391 1.55 527 1.55 535 1.55 487 1.55
 108  0.167  0.583  0.333- 528 1.55 392 1.55 488 1.55 536 1.55
 109  0.167  0.583  0.833- 393 1.55 529 1.55 489 1.55 537 1.55
 110  0.167  0.833  0.333- 394 1.55 530 1.55 490 1.55 538 1.55
 111  0.167  0.833  0.833- 531 1.55 395 1.55 491 1.55 539 1.55
 112  0.333  0.083  0.333- 396 1.55 532 1.55 492 1.55 540 1.55
 113  0.333  0.083  0.833- 493 1.55 397 1.55 533 1.55 541 1.55
 114  0.333  0.333  0.333- 534 1.55 542 1.55 494 1.55 398 1.55
 115  0.333  0.333  0.833- 399 1.55 543 1.55 535 1.55 495 1.55
 116  0.333  0.583  0.333- 496 1.55 536 1.55 544 1.55 400 1.55
 117  0.333  0.583  0.833- 401 1.54 497 1.55 537 1.55 545 1.57
 118  0.333  0.833  0.333- 498 1.55 402 1.55 538 1.55 546 1.55
 119  0.333  0.833  0.833- 499 1.55 403 1.55 539 1.55 547 1.55
 120  0.500  0.083  0.333- 404 1.55 500 1.55 540 1.55 548 1.55
 121  0.500  0.083  0.833- 501 1.55 405 1.55 549 1.55 541 1.55
 122  0.500  0.333  0.334- 550 1.55 502 1.55 542 1.55 406 1.55
 123  0.500  0.333  0.835- 407 1.54 503 1.54 551 1.55 543 1.55
 124  0.500  0.584  0.332- 504 1.54 552 1.55 544 1.55 408 1.55
 125  0.500  0.583  0.831- 505 1.54 545 1.55 553 1.56 409 1.56
 126  0.500  0.833  0.333- 554 1.55 410 1.55 506 1.55 546 1.55
 127  0.500  0.833  0.833- 507 1.55 411 1.55 555 1.55 547 1.55
 128  0.667  0.083  0.333- 412 1.55 556 1.55 548 1.55 508 1.55
 129  0.667  0.083  0.833- 509 1.54 557 1.55 413 1.55 549 1.55
 130  0.666  0.333  0.334- 550 1.55 510 1.55 558 1.55 414 1.55
 131  0.667  0.333  0.833- 415 1.54 559 1.54 551 1.55 511 1.55
 132  0.666  0.583  0.334- 512 1.55 560 1.55 552 1.55 416 1.55
 133  0.668  0.584  0.835- 417 1.54 553 1.54 561 1.55 513 1.55
 134  0.667  0.833  0.333- 418 1.55 554 1.55 562 1.55 514 1.55
 135  0.667  0.833  0.833- 515 1.55 419 1.55 563 1.55 555 1.55
 136  0.833  0.083  0.333- 420 1.55 564 1.55 556 1.55 516 1.55
 137  0.833  0.083  0.833- 565 1.55 421 1.55 517 1.55 557 1.55
 138  0.833  0.333  0.334- 518 1.55 422 1.55 558 1.55 566 1.55
 139  0.833  0.333  0.833- 567 1.55 423 1.55 559 1.55 519 1.55
 140  0.833  0.583  0.334- 424 1.55 520 1.55 568 1.55 560 1.55
 141  0.834  0.583  0.834- 561 1.54 569 1.55 425 1.55 521 1.55
 142  0.833  0.833  0.333- 426 1.55 570 1.55 522 1.55 562 1.55
 143  0.833  0.833  0.833- 563 1.55 523 1.55 427 1.55 571 1.55
 144  0.083  0.208  0.333- 428 1.55 526 1.55 476 1.55 484 1.55
 145  0.083  0.208  0.833- 429 1.55 477 1.55 485 1.55 527 1.55
 146  0.083  0.458  0.333- 478 1.55 430 1.55 486 1.55 528 1.55
 147  0.083  0.458  0.833- 431 1.55 479 1.55 529 1.55 487 1.55
 148  0.083  0.708  0.333- 432 1.55 480 1.55 488 1.55 530 1.55
 149  0.083  0.708  0.833- 481 1.55 433 1.55 531 1.55 489 1.55
 150  0.083  0.958  0.333- 434 1.55 524 1.55 490 1.55 482 1.55
 151  0.083  0.958  0.833- 491 1.55 483 1.55 435 1.55 525 1.55
 152  0.250  0.208  0.333- 436 1.55 484 1.55 534 1.55 492 1.55
 153  0.250  0.208  0.833- 485 1.55 437 1.55 493 1.55 535 1.55
 154  0.250  0.458  0.333- 486 1.54 536 1.55 494 1.55 438 1.55
 155  0.250  0.458  0.833- 439 1.55 537 1.55 487 1.55 495 1.55
 156  0.250  0.708  0.333- 538 1.55 440 1.55 488 1.55 496 1.55
 157  0.250  0.708  0.833- 441 1.55 489 1.55 539 1.55 497 1.55
 158  0.250  0.958  0.333- 442 1.55 532 1.55 490 1.55 498 1.55
 159  0.250  0.958  0.833- 533 1.55 491 1.55 443 1.55 499 1.55
 160  0.417  0.208  0.333- 444 1.55 492 1.55 500 1.55 542 1.55
 161  0.417  0.208  0.834- 543 1.54 445 1.55 493 1.55 501 1.55
 162  0.416  0.458  0.332- 494 1.54 502 1.55 544 1.55 446 1.55
 163  0.417  0.458  0.832- 495 1.54 503 1.55 447 1.55 545 1.55
 164  0.417  0.708  0.333- 546 1.54 496 1.55 504 1.55 448 1.55
 165  0.417  0.708  0.833- 449 1.55 547 1.55 497 1.55 505 1.55
 166  0.417  0.958  0.333- 450 1.55 540 1.55 498 1.55 506 1.55
 167  0.417  0.958  0.833- 541 1.55 451 1.55 499 1.55 507 1.55
 168  0.583  0.208  0.333- 452 1.55 508 1.55 500 1.55 550 1.55
 169  0.583  0.208  0.834- 551 1.54 453 1.55 509 1.55 501 1.55
 170  0.583  0.458  0.333- 510 1.54 552 1.55 502 1.55 454 1.57
 171  0.584  0.458  0.832- 511 1.54 503 1.55 455 1.55 553 1.56
 172  0.583  0.708  0.334- 512 1.55 504 1.55 554 1.55 456 1.55
 173  0.583  0.708  0.833- 457 1.55 555 1.55 513 1.55 505 1.55
 174  0.583  0.958  0.333- 458 1.55 514 1.55 548 1.55 506 1.55
 175  0.583  0.958  0.833- 549 1.55 459 1.55 515 1.55 507 1.55
 176  0.750  0.208  0.333- 460 1.55 508 1.55 516 1.55 558 1.55
 177  0.750  0.208  0.833- 517 1.55 461 1.55 509 1.55 559 1.55
 178  0.750  0.458  0.334- 560 1.55 510 1.55 518 1.55 462 1.55
 179  0.750  0.458  0.834- 463 1.54 519 1.55 561 1.55 511 1.55
 180  0.750  0.708  0.333- 464 1.55 520 1.55 562 1.55 512 1.55
 181  0.750  0.709  0.834- 513 1.54 465 1.55 563 1.55 521 1.55
 182  0.750  0.958  0.333- 466 1.55 522 1.55 514 1.55 556 1.55
 183  0.750  0.958  0.833- 557 1.55 467 1.55 523 1.55 515 1.55
 184  0.917  0.208  0.333- 468 1.55 516 1.55 566 1.55 476 1.55
 185  0.917  0.208  0.833- 517 1.55 469 1.55 567 1.55 477 1.55
 186  0.917  0.458  0.333- 470 1.55 518 1.55 568 1.55 478 1.55
 187  0.917  0.458  0.833- 471 1.55 519 1.55 479 1.55 569 1.55
 188  0.917  0.708  0.333- 472 1.55 520 1.55 570 1.55 480 1.55
 189  0.917  0.708  0.833- 521 1.54 473 1.55 571 1.55 481 1.55
 190  0.917  0.958  0.333- 474 1.55 522 1.55 564 1.55 482 1.55
 191  0.917  0.958  0.833- 523 1.55 565 1.55 475 1.55 483 1.55
 192  1.000  0.167  0.167- 476 1.55 372 1.55 287 1.55 332 1.55
 193  1.000  0.167  0.667- 373 1.55 288 1.55 333 1.55 477 1.55
 194  1.000  0.417  0.167- 374 1.55 478 1.55 289 1.55 334 1.55
 195  1.000  0.417  0.667- 479 1.55 375 1.55 335 1.55 290 1.55
 196  0.000  0.667  0.167- 376 1.55 480 1.55 291 1.55 336 1.55
 197  0.000  0.667  0.667- 377 1.54 337 1.54 292 1.55 481 1.55
 198  0.000  0.917  0.167- 482 1.55 378 1.55 285 1.55 338 1.55
 199  0.000  0.917  0.667- 379 1.55 339 1.55 286 1.55 483 1.55
 200  0.167  0.167  0.167- 484 1.55 332 1.55 295 1.55 340 1.55
 201  0.167  0.167  0.667- 333 1.55 485 1.55 341 1.55 296 1.55
 202  0.167  0.417  0.167- 334 1.55 486 1.55 297 1.55 342 1.55
 203  0.167  0.417  0.667- 487 1.55 335 1.55 298 1.55 343 1.55
 204  0.167  0.667  0.167- 488 1.55 336 1.55 299 1.55 344 1.55
 205  0.167  0.667  0.667- 345 1.55 337 1.55 300 1.55 489 1.55
 206  0.167  0.917  0.167- 490 1.55 293 1.55 338 1.55 346 1.55
 207  0.167  0.917  0.667- 294 1.54 347 1.55 339 1.55 491 1.55
 208  0.333  0.167  0.167- 492 1.55 340 1.55 303 1.55 348 1.55
 209  0.333  0.166  0.667- 304 1.54 341 1.54 493 1.55 349 1.55
 210  0.333  0.417  0.166- 494 1.54 342 1.54 350 1.55 305 1.55
 211  0.334  0.417  0.666- 495 1.54 343 1.55 351 1.55 306 1.56
 212  0.333  0.667  0.166- 307 1.55 344 1.55 496 1.55 352 1.55
 213  0.333  0.668  0.666- 308 1.54 497 1.55 345 1.55 353 1.55
 214  0.333  0.917  0.167- 301 1.55 498 1.55 346 1.55 354 1.55
 215  0.333  0.917  0.667- 302 1.55 499 1.55 347 1.55 355 1.55
 216  0.500  0.167  0.167- 500 1.55 311 1.55 356 1.55 348 1.55
 217  0.500  0.166  0.667- 312 1.54 357 1.55 349 1.55 501 1.55
 218  0.500  0.417  0.167- 358 1.55 313 1.55 350 1.55 502 1.55
 219  0.500  0.667  0.166- 504 1.54 314 1.54 360 1.55 352 1.55
 220  0.500  0.665  0.667- 505 1.54 353 1.55 315 1.56 361 1.56
 221  0.500  0.917  0.167- 309 1.55 362 1.55 506 1.55 354 1.55
 222  0.500  0.917  0.667- 310 1.55 355 1.55 363 1.55 507 1.55
 223  0.667  0.167  0.167- 508 1.55 364 1.55 318 1.55 356 1.55
 224  0.667  0.166  0.667- 319 1.54 365 1.54 509 1.55 357 1.55
 225  0.667  0.417  0.167- 366 1.55 510 1.55 320 1.55 358 1.55
 226  0.666  0.417  0.667- 511 1.54 359 1.55 367 1.55 321 1.56
 227  0.667  0.667  0.167- 322 1.55 368 1.55 512 1.55 360 1.55
 228  0.667  0.667  0.667- 323 1.54 361 1.55 369 1.55 513 1.55
 229  0.667  0.917  0.167- 514 1.55 316 1.55 370 1.55 362 1.55
 230  0.667  0.917  0.667- 317 1.55 371 1.55 515 1.55 363 1.55
 231  0.833  0.167  0.167- 516 1.55 326 1.55 364 1.55 372 1.55
 232  0.833  0.167  0.667- 517 1.55 373 1.55 365 1.55 327 1.55
 233  0.833  0.417  0.167- 328 1.55 366 1.55 374 1.55 518 1.55
 234  0.833  0.417  0.667- 519 1.55 375 1.55 329 1.55 367 1.55
 235  0.833  0.667  0.167- 520 1.55 368 1.55 330 1.55 376 1.55
 236  0.834  0.667  0.667- 369 1.54 377 1.55 331 1.55 521 1.55
 237  0.833  0.917  0.167- 522 1.55 324 1.55 370 1.55 378 1.55
 238  0.833  0.917  0.667- 325 1.55 371 1.55 379 1.55 523 1.55
 239  0.083  0.042  0.167- 524 1.55 332 1.55 285 1.55 293 1.55
 240  0.083  0.042  0.667- 333 1.55 294 1.55 286 1.55 525 1.55
 241  0.083  0.292  0.167- 287 1.55 526 1.55 334 1.55 295 1.55
 242  0.083  0.292  0.667- 527 1.55 288 1.55 296 1.55 335 1.55
 243  0.083  0.542  0.167- 528 1.55 289 1.55 336 1.55 297 1.55
 244  0.083  0.542  0.667- 298 1.54 290 1.54 529 1.55 337 1.55
 245  0.083  0.792  0.167- 530 1.55 291 1.55 338 1.55 299 1.55
 246  0.083  0.792  0.667- 300 1.55 292 1.55 339 1.55 531 1.55
 247  0.250  0.042  0.167- 532 1.55 340 1.55 293 1.55 301 1.55
 248  0.250  0.042  0.667- 341 1.55 294 1.55 533 1.55 302 1.55
 249  0.250  0.292  0.167- 295 1.55 303 1.55 534 1.55 342 1.55
 250  0.250  0.292  0.667- 296 1.55 535 1.55 304 1.55 343 1.55
 251  0.250  0.542  0.166- 536 1.55 297 1.55 344 1.55 305 1.55
 252  0.249  0.541  0.666- 298 1.54 537 1.55 345 1.55 306 1.55
 253  0.250  0.792  0.167- 538 1.55 346 1.55 299 1.55 307 1.55
 254  0.250  0.792  0.667- 308 1.54 347 1.54 539 1.55 300 1.55
 255  0.417  0.042  0.167- 348 1.55 540 1.55 301 1.55 309 1.55
 256  0.417  0.042  0.667- 349 1.55 302 1.55 541 1.55 310 1.55
 257  0.417  0.292  0.167- 303 1.55 542 1.55 311 1.55 350 1.55
 258  0.416  0.291  0.667- 351 1.54 304 1.54 543 1.55 312 1.55
 259  0.417  0.542  0.166- 544 1.55 352 1.55 305 1.55 313 1.55
 260  0.417  0.792  0.167- 354 1.55 546 1.55 307 1.55 314 1.55
 261  0.417  0.791  0.667- 547 1.55 308 1.55 355 1.55 315 1.55
 262  0.583  0.042  0.167- 356 1.55 548 1.55 316 1.55 309 1.55
 263  0.583  0.042  0.667- 357 1.55 317 1.55 549 1.55 310 1.55
 264  0.583  0.292  0.167- 318 1.55 311 1.55 550 1.55 358 1.55
 265  0.584  0.291  0.667- 319 1.54 359 1.54 551 1.55 312 1.55
 266  0.583  0.542  0.167- 320 1.55 360 1.55 313 1.55 552 1.55
 267  0.583  0.792  0.167- 322 1.55 362 1.55 314 1.55 554 1.55
 268  0.583  0.792  0.667- 323 1.55 555 1.55 363 1.55 315 1.55
 269  0.750  0.042  0.167- 556 1.55 364 1.55 324 1.55 316 1.55
 270  0.750  0.042  0.667- 365 1.55 325 1.55 557 1.55 317 1.55
 271  0.750  0.292  0.167- 318 1.55 366 1.55 558 1.55 326 1.55
 272  0.750  0.292  0.667- 559 1.55 319 1.55 327 1.55 367 1.55
 273  0.750  0.542  0.167- 328 1.55 368 1.55 560 1.55 320 1.55
 274  0.751  0.542  0.667- 329 1.54 321 1.54 561 1.55 369 1.55
 275  0.750  0.792  0.167- 562 1.55 370 1.55 330 1.55 322 1.55
 276  0.750  0.792  0.667- 323 1.54 371 1.54 331 1.55 563 1.55
 277  0.917  0.042  0.167- 564 1.55 324 1.55 372 1.55 285 1.55
 278  0.917  0.042  0.667- 325 1.55 565 1.55 286 1.55 373 1.55
 279  0.917  0.292  0.167- 326 1.55 374 1.55 566 1.55 287 1.55
 280  0.917  0.292  0.667- 327 1.55 567 1.55 375 1.55 288 1.55
 281  0.917  0.542  0.167- 568 1.55 328 1.55 376 1.55 289 1.55
 282  0.917  0.542  0.667- 329 1.54 290 1.54 569 1.55 377 1.55
 283  0.917  0.792  0.167- 330 1.55 570 1.55 378 1.55 291 1.55
 284  0.917  0.792  0.667- 331 1.54 379 1.55 292 1.55 571 1.55
 285  1.000  0.000  0.125-   1 1.55 239 1.55 198 1.55 277 1.55
 286  1.000  0.000  0.625- 240 1.55 199 1.55   2 1.55 278 1.55
 287  1.000  0.250  0.125-   3 1.55 241 1.55 192 1.55 279 1.55
 288  1.000  0.250  0.625-   4 1.55 242 1.55 193 1.55 280 1.55
 289  1.000  0.500  0.125-   5 1.55 243 1.55 194 1.55 281 1.55
 290  1.000  0.500  0.625- 244 1.54 282 1.54   6 1.55 195 1.55
 291  0.000  0.750  0.125-   7 1.55 245 1.55 196 1.55 283 1.55
 292  0.000  0.750  0.625- 246 1.55 284 1.55   8 1.55 197 1.55
 293  0.167  1.000  0.125-   9 1.55 206 1.55 247 1.55 239 1.55
 294  0.167  1.000  0.625- 207 1.54 248 1.55 240 1.55  10 1.55
 295  0.167  0.250  0.125- 249 1.55  11 1.55 200 1.55 241 1.55
 296  0.167  0.250  0.625- 250 1.55  12 1.55 242 1.55 201 1.55
 297  0.167  0.500  0.125-  13 1.55 251 1.55 202 1.55 243 1.55
 298  0.166  0.500  0.625- 252 1.54 244 1.54  14 1.55 203 1.55
 299  0.167  0.750  0.125-  15 1.55 253 1.55 204 1.55 245 1.55
 300  0.167  0.750  0.625- 246 1.55  16 1.55 205 1.55 254 1.55
 301  0.333  1.000  0.125-  17 1.55 214 1.55 255 1.55 247 1.55
 302  0.333  1.000  0.625- 256 1.55  18 1.55 215 1.55 248 1.55
 303  0.333  0.250  0.125-  19 1.55 257 1.55 208 1.55 249 1.55
 304  0.333  0.249  0.625- 258 1.54 209 1.54  20 1.55 250 1.55
 305  0.333  0.500  0.125-  21 1.55 259 1.55 210 1.55 251 1.55
 306  0.334  0.501  0.625- 575 1.49  22 1.55 252 1.55 211 1.56
 307  0.333  0.750  0.125- 212 1.55  23 1.55 260 1.55 253 1.55
 308  0.333  0.750  0.625- 213 1.54 254 1.54  24 1.55 261 1.55
 309  0.500  1.000  0.125- 221 1.55  25 1.55 255 1.55 262 1.55
 310  0.500  1.000  0.625- 222 1.55  26 1.55 263 1.55 256 1.55
 311  0.500  0.250  0.125-  27 1.54 216 1.55 257 1.55 264 1.55
 312  0.500  0.250  0.625- 217 1.54  28 1.55 258 1.55 265 1.55
 313  0.500  0.500  0.125- 259 1.55 218 1.55 266 1.55  29 1.55
 314  0.500  0.750  0.125- 219 1.54  30 1.54 267 1.55 260 1.55
 315  0.500  0.749  0.625-  31 1.54 268 1.55 261 1.55 220 1.56
 316  0.667  1.000  0.125-  32 1.55 229 1.55 262 1.55 269 1.55
 317  0.667  1.000  0.625- 230 1.55 263 1.55  33 1.55 270 1.55
 318  0.667  0.250  0.125-  34 1.55 264 1.55 271 1.55 223 1.55
 319  0.667  0.249  0.625- 265 1.54 224 1.54  35 1.55 272 1.55
 320  0.667  0.500  0.125-  36 1.55 266 1.55 225 1.55 273 1.55
 321  0.667  0.502  0.627- 576 1.48 274 1.54  37 1.56 226 1.56
 322  0.667  0.750  0.125-  38 1.55 267 1.55 227 1.55 275 1.55
 323  0.667  0.750  0.625- 228 1.54 276 1.54 268 1.55  39 1.55
 324  0.833  1.000  0.125-  40 1.55 277 1.55 237 1.55 269 1.55
 325  0.833  1.000  0.625- 238 1.55 270 1.55 278 1.55  41 1.55
 326  0.833  0.250  0.125-  42 1.55 279 1.55 231 1.55 271 1.55
 327  0.833  0.250  0.625-  43 1.55 280 1.55 272 1.55 232 1.55
 328  0.833  0.500  0.125-  44 1.55 281 1.55 233 1.55 273 1.55
 329  0.834  0.500  0.625- 274 1.54 282 1.54  45 1.55 234 1.55
 330  0.833  0.750  0.125-  46 1.55 283 1.55 275 1.55 235 1.55
 331  0.834  0.750  0.625- 284 1.54 236 1.55  47 1.55 276 1.55
 332  0.083  0.125  0.125-  48 1.55 239 1.55 200 1.55 192 1.55
 333  0.083  0.125  0.625- 240 1.55 201 1.55  49 1.55 193 1.55
 334  0.083  0.375  0.125- 202 1.55  50 1.55 241 1.55 194 1.55
 335  0.083  0.375  0.625- 203 1.55  51 1.55 242 1.55 195 1.55
 336  0.083  0.625  0.125-  52 1.55 204 1.55 243 1.55 196 1.55
 337  0.083  0.625  0.625- 197 1.54 205 1.55  53 1.55 244 1.55
 338  0.083  0.875  0.125-  54 1.55 206 1.55 245 1.55 198 1.55
 339  0.083  0.875  0.625- 199 1.55 207 1.55 246 1.55  55 1.55
 340  0.250  0.125  0.125-  56 1.55 247 1.55 208 1.55 200 1.55
 341  0.250  0.125  0.625- 209 1.54 248 1.55  57 1.55 201 1.55
 342  0.250  0.375  0.125- 210 1.54  58 1.54 249 1.55 202 1.55
 343  0.250  0.375  0.625-  59 1.55 203 1.55 211 1.55 250 1.55
 344  0.250  0.625  0.125-  60 1.54 212 1.55 251 1.55 204 1.55
 345  0.250  0.625  0.625- 205 1.55  61 1.55 213 1.55 252 1.55
 346  0.250  0.875  0.125-  62 1.55 253 1.55 214 1.55 206 1.55
 347  0.250  0.875  0.625- 254 1.54 207 1.55 215 1.55  63 1.55
 348  0.417  0.125  0.125-  64 1.55 255 1.55 208 1.55 216 1.55
 349  0.417  0.125  0.625- 256 1.55  65 1.55 217 1.55 209 1.55
 350  0.417  0.375  0.125-  66 1.55 210 1.55 218 1.55 257 1.55
 351  0.417  0.374  0.626- 572 1.52 258 1.54 211 1.55  67 1.55
 352  0.417  0.625  0.124- 259 1.55 219 1.55  68 1.55 212 1.55
 353  0.416  0.624  0.625- 575 1.49  69 1.55 220 1.55 213 1.55
 354  0.417  0.875  0.125- 260 1.55  70 1.55 221 1.55 214 1.55
 355  0.417  0.875  0.625-  71 1.55 222 1.55 261 1.55 215 1.55
 356  0.583  0.125  0.125-  72 1.55 262 1.55 216 1.55 223 1.55
 357  0.583  0.125  0.625- 263 1.55 217 1.55  73 1.55 224 1.55
 358  0.583  0.375  0.125- 218 1.55 225 1.55  74 1.55 264 1.55
 359  0.583  0.374  0.626- 572 1.52 265 1.54  75 1.55 226 1.55
 360  0.583  0.625  0.125-  76 1.55 219 1.55 266 1.55 227 1.55
 361  0.585  0.624  0.627- 576 1.48 228 1.55 220 1.56  77 1.56
 362  0.583  0.875  0.125- 221 1.55 267 1.55 229 1.55  78 1.55
 363  0.583  0.875  0.625-  79 1.55 222 1.55 268 1.55 230 1.55
 364  0.750  0.125  0.125-  80 1.55 269 1.55 231 1.55 223 1.55
 365  0.750  0.125  0.625- 224 1.54 270 1.55  81 1.55 232 1.55
 366  0.750  0.375  0.125- 225 1.55  82 1.55 233 1.55 271 1.55
 367  0.750  0.376  0.625-  83 1.54 234 1.55 272 1.55 226 1.55
 368  0.750  0.625  0.125-  84 1.54 235 1.55 227 1.55 273 1.55
 369  0.751  0.625  0.625- 236 1.54  85 1.55 228 1.55 274 1.55
 370  0.750  0.875  0.125-  86 1.55 275 1.55 229 1.55 237 1.55
 371  0.750  0.875  0.625- 276 1.54 238 1.55 230 1.55  87 1.55
 372  0.917  0.125  0.125-  88 1.55 192 1.55 277 1.55 231 1.55
 373  0.917  0.125  0.625- 193 1.55  89 1.55 278 1.55 232 1.55
 374  0.917  0.375  0.125- 194 1.55 279 1.55  90 1.55 233 1.55
 375  0.917  0.375  0.625-  91 1.55 280 1.55 234 1.55 195 1.55
 376  0.917  0.625  0.125-  92 1.55 196 1.55 281 1.55 235 1.55
 377  0.917  0.625  0.625- 197 1.54 236 1.55  93 1.55 282 1.55
 378  0.917  0.875  0.125-  94 1.55 198 1.55 283 1.55 237 1.55
 379  0.917  0.875  0.625- 199 1.55 284 1.55 238 1.55  95 1.55
 380  1.000  0.083  0.458-  96 1.55  49 1.55   2 1.55  89 1.55
 381  1.000  0.083  0.958-  48 1.55   1 1.55  97 1.55  88 1.55
 382  1.000  0.333  0.458-  98 1.55  51 1.55   4 1.55  91 1.55
 383  1.000  0.333  0.958-  50 1.55  99 1.55   3 1.55  90 1.55
 384  1.000  0.583  0.458-  93 1.55  53 1.55 100 1.55   6 1.55
 385  0.000  0.583  0.958-  52 1.55 101 1.55  92 1.55   5 1.55
 386  1.000  0.833  0.458-  55 1.55 102 1.55  95 1.55   8 1.55
 387  0.000  0.833  0.958-  54 1.55 103 1.55  94 1.55   7 1.55
 388  0.167  0.083  0.458-  57 1.55  10 1.55 104 1.55  49 1.55
 389  0.167  0.083  0.958-   9 1.55 105 1.55  56 1.55  48 1.55
 390  0.167  0.333  0.458- 106 1.55  12 1.55  59 1.55  51 1.55
 391  0.167  0.333  0.958-  58 1.55 107 1.55  11 1.55  50 1.55
 392  0.167  0.583  0.458-  61 1.55 108 1.55  53 1.55  14 1.55
 393  0.167  0.583  0.958- 109 1.55  60 1.55  13 1.55  52 1.55
 394  0.167  0.833  0.458-  16 1.55 110 1.55  63 1.55  55 1.55
 395  0.167  0.833  0.958- 111 1.55  62 1.55  15 1.55  54 1.55
 396  0.333  0.083  0.458- 112 1.55  65 1.55  18 1.55  57 1.55
 397  0.333  0.083  0.958-  17 1.55 113 1.55  64 1.55  56 1.55
 398  0.334  0.334  0.458-  59 1.55 114 1.55  67 1.55  20 1.55
 399  0.333  0.333  0.958- 115 1.55  66 1.55  58 1.55  19 1.55
 400  0.333  0.583  0.458-  22 1.54  69 1.55 116 1.55  61 1.55
 401  0.333  0.583  0.958- 117 1.54  68 1.55  60 1.55  21 1.55
 402  0.333  0.833  0.458-  24 1.54 118 1.55  71 1.55  63 1.55
 403  0.333  0.833  0.958- 119 1.55  23 1.55  70 1.55  62 1.55
 404  0.500  0.083  0.458- 120 1.55  26 1.55  65 1.55  73 1.55
 405  0.500  0.083  0.958-  25 1.55 121 1.55  64 1.55  72 1.55
 406  0.500  0.334  0.459-  67 1.54  75 1.54 122 1.55  28 1.55
 407  0.500  0.333  0.959- 123 1.54  27 1.54  66 1.55  74 1.55
 408  0.499  0.583  0.458- 574 1.49  69 1.55  77 1.55 124 1.55
 409  0.500  0.583  0.957-  29 1.54  76 1.55  68 1.55 125 1.56
 410  0.500  0.833  0.458-  79 1.55 126 1.55  71 1.55  31 1.55
 411  0.500  0.833  0.958-  30 1.55 127 1.55  78 1.55  70 1.55
 412  0.667  0.083  0.458- 128 1.55  73 1.55  81 1.55  33 1.55
 413  0.667  0.083  0.958-  32 1.55 129 1.55  72 1.55  80 1.55
 414  0.666  0.334  0.459-  83 1.55 130 1.55  35 1.55  75 1.55
 415  0.667  0.333  0.958- 131 1.54  74 1.55  82 1.55  34 1.55
 416  0.666  0.583  0.459-  77 1.54  37 1.54 132 1.55  85 1.55
 417  0.667  0.584  0.959- 133 1.54  84 1.54  76 1.55  36 1.55
 418  0.667  0.833  0.458- 134 1.55  79 1.55  39 1.55  87 1.55
 419  0.667  0.833  0.958-  38 1.55 135 1.55  86 1.55  78 1.55
 420  0.833  0.083  0.458- 136 1.55  81 1.55  89 1.55  41 1.55
 421  0.833  0.083  0.958-  40 1.55 137 1.55  80 1.55  88 1.55
 422  0.833  0.334  0.459- 138 1.55  91 1.55  43 1.55  83 1.55
 423  0.833  0.333  0.958- 139 1.55  82 1.55  90 1.55  42 1.55
 424  0.833  0.583  0.458-  85 1.55  45 1.55 140 1.55  93 1.55
 425  0.834  0.583  0.959-  92 1.54 141 1.55  44 1.55  84 1.55
 426  0.833  0.833  0.458- 142 1.55  47 1.55  87 1.55  95 1.55
 427  0.833  0.833  0.958-  94 1.55 143 1.55  46 1.55  86 1.55
 428  0.083  0.208  0.458- 144 1.55  12 1.55  49 1.55   4 1.55
 429  0.083  0.208  0.958-  11 1.55 145 1.55  48 1.55   3 1.55
 430  0.083  0.458  0.458-  14 1.54 146 1.55  51 1.55   6 1.55
 431  0.083  0.458  0.958- 147 1.55  13 1.55  50 1.55   5 1.55
 432  0.083  0.708  0.458- 148 1.55  16 1.55   8 1.55  53 1.55
 433  0.083  0.708  0.958-  15 1.55 149 1.55  52 1.55   7 1.55
 434  0.083  0.958  0.458-  10 1.55 150 1.55  55 1.55   2 1.55
 435  0.083  0.958  0.958-   9 1.55 151 1.55  54 1.55   1 1.55
 436  0.250  0.208  0.458-  20 1.55 152 1.55  12 1.55  57 1.55
 437  0.250  0.208  0.958- 153 1.55  56 1.55  19 1.55  11 1.55
 438  0.250  0.458  0.458-  22 1.54  59 1.55 154 1.55  14 1.55
 439  0.250  0.458  0.958- 155 1.55  21 1.55  58 1.55  13 1.55
 440  0.250  0.708  0.458-  61 1.55 156 1.55  16 1.55  24 1.55
 441  0.250  0.708  0.958- 157 1.55  23 1.55  60 1.55  15 1.55
 442  0.250  0.958  0.458-  63 1.55 158 1.55  18 1.55  10 1.55
 443  0.250  0.958  0.958-  62 1.55 159 1.55  17 1.55   9 1.55
 444  0.417  0.208  0.458- 160 1.55  20 1.55  28 1.55  65 1.55
 445  0.417  0.208  0.958-  64 1.55 161 1.55  19 1.55  27 1.55
 446  0.417  0.459  0.458- 574 1.49  22 1.55 162 1.55  67 1.56
 447  0.417  0.458  0.958-  29 1.55  21 1.55  66 1.55 163 1.55
 448  0.417  0.708  0.458-  69 1.54  24 1.55  31 1.55 164 1.55
 449  0.417  0.708  0.958- 165 1.55  68 1.55  30 1.55  23 1.55
 450  0.417  0.958  0.458- 166 1.55  18 1.55  71 1.55  26 1.55
 451  0.417  0.958  0.958-  70 1.55 167 1.55  17 1.55  25 1.55
 452  0.583  0.208  0.458- 168 1.55  28 1.55  35 1.55  73 1.55
 453  0.583  0.208  0.959-  72 1.55 169 1.55  34 1.55  27 1.55
 454  0.581  0.459  0.460- 574 1.51  37 1.55  75 1.55 170 1.57
 455  0.583  0.459  0.958-  29 1.55  36 1.55  74 1.55 171 1.55
 456  0.583  0.708  0.459-  31 1.54  39 1.55 172 1.55  77 1.56
 457  0.583  0.708  0.958- 173 1.55  76 1.55  30 1.55  38 1.55
 458  0.583  0.958  0.458- 174 1.55  33 1.55  26 1.55  79 1.55
 459  0.583  0.958  0.958-  78 1.55 175 1.55  32 1.55  25 1.55
 460  0.750  0.208  0.458- 176 1.55  43 1.55  35 1.55  81 1.55
 461  0.750  0.208  0.958- 177 1.55  34 1.55  80 1.55  42 1.55
 462  0.749  0.459  0.459-  83 1.54  45 1.55 178 1.55  37 1.56
 463  0.750  0.458  0.958- 179 1.54  36 1.55  44 1.55  82 1.55
 464  0.750  0.708  0.458-  85 1.55  39 1.55 180 1.55  47 1.55
 465  0.750  0.708  0.959-  46 1.54 181 1.55  38 1.55  84 1.55
 466  0.750  0.958  0.458- 182 1.55  33 1.55  87 1.55  41 1.55
 467  0.750  0.958  0.958-  86 1.55 183 1.55  32 1.55  40 1.55
 468  0.917  0.208  0.458- 184 1.55   4 1.55  89 1.55  43 1.55
 469  0.917  0.208  0.958-  88 1.55  42 1.55 185 1.55   3 1.55
 470  0.916  0.458  0.458- 186 1.55  91 1.55   6 1.55  45 1.55
 471  0.917  0.458  0.958- 187 1.55   5 1.55  44 1.55  90 1.55
 472  0.917  0.708  0.458- 188 1.55  47 1.55   8 1.55  93 1.55
 473  0.917  0.708  0.958-   7 1.55 189 1.55  46 1.55  92 1.55
 474  0.917  0.958  0.458- 190 1.55  41 1.55  95 1.55   2 1.55
 475  0.917  0.958  0.958-   1 1.55  40 1.55  94 1.55 191 1.55
 476  1.000  0.167  0.292- 192 1.55  96 1.55 144 1.55 184 1.55
 477  1.000  0.167  0.792-  97 1.55 193 1.55 145 1.55 185 1.55
 478  1.000  0.417  0.292- 146 1.55 194 1.55  98 1.55 186 1.55
 479  0.000  0.417  0.792- 195 1.55 147 1.55 187 1.55  99 1.55
 480  1.000  0.667  0.292- 196 1.55 148 1.55 100 1.55 188 1.55
 481  0.000  0.667  0.792- 149 1.55 189 1.55 197 1.55 101 1.55
 482  1.000  0.917  0.292- 198 1.55 102 1.55 150 1.55 190 1.55
 483  0.000  0.917  0.792- 151 1.55 103 1.55 199 1.55 191 1.55
 484  0.167  0.167  0.292- 152 1.55 200 1.55 104 1.55 144 1.55
 485  0.167  0.167  0.792- 153 1.55 105 1.55 201 1.55 145 1.55
 486  0.167  0.417  0.292- 154 1.54 202 1.55 146 1.55 106 1.55
 487  0.167  0.417  0.792- 203 1.55 155 1.55 107 1.55 147 1.55
 488  0.167  0.667  0.292- 204 1.55 156 1.55 148 1.55 108 1.55
 489  0.167  0.667  0.792- 157 1.55 149 1.55 205 1.55 109 1.55
 490  0.167  0.917  0.292- 206 1.55 110 1.55 158 1.55 150 1.55
 491  0.167  0.917  0.792- 159 1.55 111 1.55 151 1.55 207 1.55
 492  0.333  0.167  0.292- 208 1.55 160 1.55 112 1.55 152 1.55
 493  0.333  0.166  0.792- 113 1.55 161 1.55 153 1.55 209 1.55
 494  0.333  0.417  0.291- 162 1.54 210 1.54 154 1.55 114 1.55
 495  0.334  0.417  0.791- 211 1.54 163 1.54 155 1.55 115 1.55
 496  0.333  0.667  0.291- 116 1.55 164 1.55 212 1.55 156 1.55
 497  0.333  0.667  0.791- 165 1.55 157 1.55 213 1.55 117 1.55
 498  0.333  0.917  0.292- 118 1.55 214 1.55 166 1.55 158 1.55
 499  0.333  0.917  0.792- 119 1.55 215 1.55 167 1.55 159 1.55
 500  0.500  0.167  0.292- 216 1.55 120 1.55 160 1.55 168 1.55
 501  0.500  0.166  0.792- 121 1.55 217 1.55 161 1.55 169 1.55
 502  0.500  0.417  0.292- 122 1.55 218 1.55 162 1.55 170 1.55
 503  0.500  0.415  0.792- 572 1.52 123 1.54 163 1.55 171 1.55
 504  0.500  0.667  0.291- 124 1.54 219 1.54 164 1.55 172 1.55
 505  0.500  0.666  0.791- 220 1.54 125 1.54 165 1.55 173 1.55
 506  0.500  0.917  0.292- 221 1.55 174 1.55 126 1.55 166 1.55
 507  0.500  0.917  0.792- 127 1.55 222 1.55 175 1.55 167 1.55
 508  0.667  0.167  0.292- 223 1.55 168 1.55 176 1.55 128 1.55
 509  0.667  0.166  0.792- 129 1.54 169 1.55 177 1.55 224 1.55
 510  0.666  0.417  0.292- 170 1.54 225 1.55 178 1.55 130 1.55
 511  0.667  0.417  0.792- 226 1.54 171 1.54 131 1.55 179 1.55
 512  0.667  0.667  0.292- 172 1.55 132 1.55 180 1.55 227 1.55
 513  0.667  0.667  0.792- 181 1.54 173 1.55 228 1.55 133 1.55
 514  0.667  0.917  0.292- 229 1.55 174 1.55 134 1.55 182 1.55
 515  0.667  0.917  0.792- 135 1.55 230 1.55 175 1.55 183 1.55
 516  0.833  0.167  0.292- 231 1.55 184 1.55 136 1.55 176 1.55
 517  0.833  0.167  0.792- 177 1.55 232 1.55 185 1.55 137 1.55
 518  0.833  0.417  0.292- 186 1.55 138 1.55 233 1.55 178 1.55
 519  0.833  0.417  0.792- 179 1.55 234 1.55 187 1.55 139 1.55
 520  0.833  0.667  0.292- 235 1.55 188 1.55 180 1.55 140 1.55
 521  0.834  0.667  0.792- 189 1.54 181 1.55 236 1.55 141 1.55
 522  0.833  0.917  0.292- 237 1.55 190 1.55 182 1.55 142 1.55
 523  0.833  0.917  0.792- 191 1.55 143 1.55 183 1.55 238 1.55
 524  0.083  0.042  0.292- 239 1.55 104 1.55 150 1.55  96 1.55
 525  0.083  0.042  0.792- 105 1.55 151 1.55 240 1.55  97 1.55
 526  0.083  0.292  0.292- 106 1.55 241 1.55 144 1.55  98 1.55
 527  0.083  0.292  0.792- 107 1.55 242 1.55 145 1.55  99 1.55
 528  0.083  0.542  0.292- 108 1.55 243 1.55 146 1.55 100 1.55
 529  0.083  0.542  0.792- 101 1.55 109 1.55 147 1.55 244 1.55
 530  0.083  0.792  0.292- 245 1.55 110 1.55 148 1.55 102 1.55
 531  0.083  0.792  0.792- 111 1.55 246 1.55 103 1.55 149 1.55
 532  0.250  0.042  0.292- 247 1.55 158 1.55 112 1.55 104 1.55
 533  0.250  0.042  0.792- 159 1.55 113 1.55 248 1.55 105 1.55
 534  0.250  0.292  0.292- 114 1.55 152 1.55 249 1.55 106 1.55
 535  0.250  0.292  0.792- 250 1.55 115 1.55 107 1.55 153 1.55
 536  0.250  0.542  0.291- 116 1.55 251 1.55 108 1.55 154 1.55
 537  0.250  0.542  0.791- 155 1.55 109 1.55 252 1.55 117 1.55
 538  0.250  0.792  0.292- 156 1.55 253 1.55 118 1.55 110 1.55
 539  0.250  0.792  0.792- 119 1.55 111 1.55 254 1.55 157 1.55
 540  0.417  0.042  0.292- 255 1.55 166 1.55 112 1.55 120 1.55
 541  0.417  0.042  0.792- 167 1.55 256 1.55 113 1.55 121 1.55
 542  0.417  0.292  0.292- 114 1.55 257 1.55 122 1.55 160 1.55
 543  0.417  0.291  0.792- 161 1.54 115 1.55 258 1.55 123 1.55
 544  0.416  0.542  0.291- 259 1.55 116 1.55 162 1.55 124 1.55
 545  0.417  0.541  0.789- 575 1.51 125 1.55 163 1.55 117 1.57
 546  0.417  0.792  0.292- 164 1.54 260 1.55 118 1.55 126 1.55
 547  0.417  0.791  0.792- 261 1.55 165 1.55 127 1.55 119 1.55
 548  0.583  0.042  0.292- 262 1.55 174 1.55 128 1.55 120 1.55
 549  0.583  0.042  0.792- 175 1.55 263 1.55 121 1.55 129 1.55
 550  0.583  0.292  0.292- 130 1.55 122 1.55 264 1.55 168 1.55
 551  0.584  0.291  0.792- 169 1.54 131 1.55 265 1.55 123 1.55
 552  0.583  0.542  0.292- 132 1.55 266 1.55 124 1.55 170 1.55
 553  0.585  0.542  0.790- 576 1.48 133 1.54 125 1.56 171 1.56
 554  0.583  0.792  0.292- 134 1.55 126 1.55 172 1.55 267 1.55
 555  0.583  0.792  0.792- 173 1.55 268 1.55 127 1.55 135 1.55
 556  0.750  0.042  0.292- 269 1.55 128 1.55 136 1.55 182 1.55
 557  0.750  0.042  0.792- 183 1.55 129 1.55 270 1.55 137 1.55
 558  0.750  0.292  0.292- 138 1.55 176 1.55 271 1.55 130 1.55
 559  0.750  0.292  0.792- 131 1.54 272 1.55 139 1.55 177 1.55
 560  0.750  0.542  0.292- 178 1.55 132 1.55 273 1.55 140 1.55
 561  0.751  0.542  0.792- 141 1.54 179 1.55 274 1.55 133 1.55
 562  0.750  0.792  0.292- 275 1.55 134 1.55 180 1.55 142 1.55
 563  0.750  0.792  0.792- 143 1.55 181 1.55 135 1.55 276 1.55
 564  0.917  0.042  0.292- 277 1.55 136 1.55 190 1.55  96 1.55
 565  0.917  0.042  0.792- 137 1.55 191 1.55 278 1.55  97 1.55
 566  0.917  0.292  0.292-  98 1.55 279 1.55 184 1.55 138 1.55
 567  0.917  0.292  0.792- 139 1.55 280 1.55 185 1.55  99 1.55
 568  0.917  0.542  0.292- 281 1.55 100 1.55 186 1.55 140 1.55
 569  0.917  0.542  0.792- 101 1.54 141 1.55 187 1.55 282 1.55
 570  0.917  0.792  0.292- 283 1.55 142 1.55 102 1.55 188 1.55
 571  0.917  0.792  0.792- 103 1.55 143 1.55 189 1.55 284 1.55
 572  0.500  0.411  0.670- 573 1.09 503 1.52 359 1.52 351 1.52
 573  0.499  0.469  0.639- 572 1.09
 574  0.498  0.501  0.492- 408 1.49 446 1.49 454 1.51
 575  0.410  0.545  0.667- 353 1.49 306 1.49 545 1.51
 576  0.591  0.545  0.671- 553 1.48 321 1.48 361 1.48
 
  LATTYP: Found a simple monoclinic cell.
 ALAT       =    12.3703241348
 B/A-ratio  =     1.2248453018
 C/A-ratio  =     1.4141600350
 COS(beta)  =    -0.0000282295
  
  Lattice vectors:
  
 A1 = (   0.0000000000,  -0.0003492082,  12.3703241299)
 A2 = (  15.1517333984,   0.0000000000,   0.0000000000)
 A3 = (   0.0000000000,  17.4936180115,   0.0000000000)


Analysis of symmetry for initial positions (statically):
=====================================================================
 Subroutine PRICEL returns:
 Original cell was already a primitive cell.
 

 Routine SETGRP: Setting up the symmetry group for a 
 simple monoclinic supercell.


 Subroutine GETGRP returns: Found  1 space group operations
 (whereof  1 operations were pure point group operations)
 out of a pool of  4 trial point group operations.


The static configuration has the point symmetry C_1 .


Analysis of symmetry for dynamics (positions and initial velocities):
=====================================================================
 Subroutine PRICEL returns:
 Original cell was already a primitive cell.
 

 Routine SETGRP: Setting up the symmetry group for a 
 simple monoclinic supercell.


 Subroutine GETGRP returns: Found  1 space group operations
 (whereof  1 operations were pure point group operations)
 out of a pool of  4 trial point group operations.


The dynamic configuration has the point symmetry C_1 .


Analysis of structural, dynamic, and magnetic symmetry:
=====================================================================
 Subroutine PRICEL returns:
 Original cell was already a primitive cell.
 

 Routine SETGRP: Setting up the symmetry group for a 
 simple monoclinic supercell.


 Subroutine GETGRP returns: Found  1 space group operations
 (whereof  1 operations were pure point group operations)
 out of a pool of  4 trial point group operations.


The overall configuration has the point symmetry C_1 .


 Subroutine INISYM returns: Found  1 space group operations
 (whereof  1 operations are pure point group operations),
 and found     1 'primitive' translations


----------------------------------------------------------------------------------------

                                     Primitive cell                                     

  volume of cell :    3278.8612

  direct lattice vectors                    reciprocal lattice vectors
    15.151733398  0.000000000  0.000000000     0.065999049  0.000000000  0.000000000
     0.000000000 17.493618012  0.000000000     0.000000000  0.057163704  0.000001614
     0.000000000 -0.000349208 12.370324130     0.000000000  0.000000000  0.080838626

  length of vectors
    15.151733398 17.493618012 12.370324135     0.065999049  0.057163704  0.080838626

  position of ions in fractional coordinates (direct lattice)
     0.000009738  0.000012498  0.000031800
     0.999979260  0.000036738  0.499984804
     0.999985433  0.249995542  0.000017942
     0.999939356  0.250031398  0.500001184
     0.000054191  0.499989511  0.000058436
     0.999882792  0.500002029  0.500024107
     0.000071889  0.750015158  0.000090384
     0.000008255  0.750025182  0.500047829
     0.166659486  0.999974367  0.000022853
     0.166625012  0.000005999  0.499997411
     0.166653025  0.249975330  0.999961759
     0.166645502  0.250021336  0.499991688
     0.166724117  0.499975296  0.999873355
     0.166466097  0.499983260  0.499887608
     0.166700631  0.749984312  0.000006491
     0.166642743  0.750025781  0.499952263
     0.333336405  0.999923819  0.000040269
     0.333340270  0.999920093  0.500028880
     0.333350850  0.249943358  0.000009109
     0.333297085  0.249979007  0.500031247
     0.333410714  0.499993851  0.999614435
     0.333165550  0.500034699  0.499778970
     0.333388988  0.749917264  0.999855036
     0.333272057  0.750062791  0.499900936
     0.500004231  0.999923779  0.000046775
     0.499999752  0.999926540  0.500041027
     0.500026511  0.249778379  0.000436238
     0.499956959  0.250002164  0.500124281
     0.500087621  0.499993636  0.999397674
     0.500034575  0.749988592  0.999818754
     0.499981290  0.749666869  0.500144773
     0.666675388  0.999923828  0.000082896
     0.666658167  0.999931188  0.500045974
     0.666669758  0.249952090  0.000123460
     0.666565270  0.250068522  0.500152695
     0.666772304  0.500051936  0.000017224
     0.665301312  0.500583144  0.501399477
     0.666718262  0.749974333  0.000086608
     0.666651806  0.749886381  0.500205300
     0.833357302  0.999985613  0.000055696
     0.833335352  0.999996721  0.500012774
     0.833331104  0.249989104  0.000078682
     0.833217221  0.250103201  0.500088357
     0.833413310  0.500009814  0.000193772
     0.833169798  0.500071981  0.500277960
     0.833448845  0.750047944  0.000190530
     0.833354984  0.750007586  0.500093118
     0.083320402  0.124997080  0.000008482
     0.083295654  0.125025194  0.499985603
     0.083323735  0.374975558  0.999933901
     0.083285201  0.375012511  0.499975099
     0.083407604  0.624988734  0.000038934
     0.083283683  0.625004723  0.499964231
     0.083353193  0.875003892  0.000042727
     0.083310238  0.875030021  0.499989601
     0.249997914  0.124946226  0.000027774
     0.249964932  0.124943394  0.500011692
     0.249968943  0.374939530  0.999741202
     0.250067982  0.375104819  0.499970113
     0.250024067  0.624987847  0.999990933
     0.249920238  0.625001646  0.499799294
     0.250018795  0.874943187  0.999976050
     0.249958012  0.875024803  0.499966305
     0.416662063  0.124887134  0.000127411
     0.416650575  0.124942227  0.500047668
     0.416718473  0.374961662  0.999785457
     0.416853397  0.375256194  0.500424791
     0.416830997  0.624876610  0.999285136
     0.416531455  0.624975045  0.499826324
     0.416687862  0.874935770  0.999952668
     0.416695781  0.874853251  0.500011305
     0.583351919  0.124878954  0.000162989
     0.583328004  0.124955613  0.500062641
     0.583376679  0.375031264  0.999743464
     0.582678501  0.375357709  0.500874413
     0.583462792  0.624957685  0.999749528
     0.583053907  0.623898414  0.501001735
     0.583345243  0.874926011  0.000048134
     0.583314279  0.874873007  0.500047967
     0.750002197  0.124952231  0.000073851
     0.749975156  0.124991899  0.500040578
     0.750054296  0.374975788  0.000071871
     0.749577118  0.375261518  0.500348886
     0.750286321  0.625101993  0.000505212
     0.749972391  0.625010082  0.500200846
     0.750042942  0.874972657  0.000087971
     0.750011686  0.874955519  0.500052312
     0.916666990  0.125002105  0.000030826
     0.916622272  0.125045433  0.500000378
     0.916667751  0.374996839  0.000090762
     0.916532262  0.375045090  0.500084554
     0.916825145  0.625029227  0.000242947
     0.916665249  0.625018166  0.500098193
     0.916724695  0.875022901  0.000086693
     0.916684598  0.875022626  0.500019714
     0.999966673  0.083362337  0.333329638
     0.000002927  0.083343967  0.833337201
     0.999920626  0.333357737  0.333365761
     0.000018866  0.333314496  0.833326523
     0.999948268  0.583323673  0.333385375
     0.000155552  0.583341261  0.833447227
     0.999996521  0.833341237  0.333367636
     0.000061871  0.833360582  0.833382969
     0.166647021  0.083336288  0.333319849
     0.166668819  0.083291671  0.833338360
     0.166639049  0.333346743  0.333305479
     0.166694933  0.333293213  0.833187273
     0.166609390  0.583311921  0.333233467
     0.166778382  0.583275367  0.833236156
     0.166667197  0.833341194  0.333306446
     0.166691837  0.833335515  0.833337130
     0.333314765  0.083302022  0.333369187
     0.333298281  0.083196746  0.833387991
     0.333243506  0.333378572  0.333268741
     0.333392468  0.333248035  0.833187401
     0.333209750  0.583350336  0.333142122
     0.333461476  0.583269110  0.833361764
     0.333303851  0.833341528  0.333264721
     0.333368008  0.833230512  0.833240516
     0.499992969  0.083294088  0.333420714
     0.500013615  0.083205139  0.833400450
     0.499912616  0.333440689  0.333500670
     0.500156216  0.332679408  0.834604761
     0.499800255  0.584084660  0.332458574
     0.500458326  0.583024928  0.831223427
     0.499984663  0.833208531  0.333412668
     0.500036768  0.833249638  0.833266879
     0.666656137  0.083314468  0.333391498
     0.666732590  0.083190726  0.833418351
     0.666485000  0.333476877  0.333570334
     0.666751073  0.333201359  0.833454532
     0.666458037  0.583295029  0.333583300
     0.667653820  0.583661488  0.834585684
     0.666647546  0.833256149  0.333435367
     0.666750066  0.833298718  0.833382161
     0.833295541  0.083349622  0.333344590
     0.833340362  0.083306360  0.833353832
     0.833131739  0.333426920  0.333536019
     0.833380360  0.333308327  0.833380291
     0.833226322  0.583319468  0.333501387
     0.833758804  0.583406104  0.833708799
     0.833313547  0.833311847  0.333392547
     0.833454027  0.833400833  0.833444149
     0.083309464  0.208358499  0.333344650
     0.083347740  0.208315125  0.833320131
     0.083234287  0.458314782  0.333279659
     0.083419002  0.458312530  0.833295417
     0.083339388  0.708338990  0.333374672
     0.083446456  0.708327513  0.833346351
     0.083333460  0.958351138  0.333333043
     0.083357495  0.958348152  0.833362505
     0.249957743  0.208329577  0.333363841
     0.249995715  0.208264499  0.833340774
     0.249818637  0.458303429  0.333118856
     0.250164710  0.458295294  0.833081816
     0.249990595  0.708340471  0.333240286
     0.250076066  0.708310854  0.833255245
     0.249984147  0.958332918  0.333359030
     0.249998416  0.958256413  0.833367088
     0.416626802  0.208347796  0.333414130
     0.416613953  0.208104537  0.833503181
     0.415766698  0.458065520  0.332437773
     0.417047404  0.458168901  0.832213464
     0.416608299  0.708377625  0.333144803
     0.416728067  0.708170628  0.833060670
     0.416650190  0.958266889  0.333390174
     0.416661143  0.958230968  0.833341590
     0.583315782  0.208370661  0.333439663
     0.583457307  0.208065701  0.833572152
     0.583409296  0.458292971  0.333361239
     0.583534795  0.458316808  0.831995218
     0.583255860  0.708090686  0.333625263
     0.583466132  0.708288334  0.833294655
     0.583336502  0.958267919  0.333409574
     0.583364187  0.958236353  0.833375062
     0.749936454  0.208386269  0.333450760
     0.750030622  0.208273719  0.833416742
     0.749584730  0.458473636  0.333830925
     0.750213506  0.458335218  0.833564012
     0.749937444  0.708297357  0.333498221
     0.750288291  0.708500020  0.833617577
     0.749986626  0.958306504  0.333405174
     0.750047168  0.958282180  0.833411433
     0.916589476  0.208388926  0.333385884
     0.916652630  0.208322144  0.833357106
     0.916513820  0.458347716  0.333470468
     0.916758833  0.458331867  0.833452394
     0.916645520  0.708332719  0.333471171
     0.916814955  0.708387525  0.833490307
     0.916636005  0.958344927  0.333350394
     0.916692803  0.958360086  0.833374959
     0.999968963  0.166694218  0.166679618
     0.999970414  0.166690080  0.666640316
     0.999935610  0.416667653  0.166693962
     0.999991014  0.416664656  0.666675570
     0.000039184  0.666670173  0.166763085
     0.000090854  0.666718595  0.666690777
     0.000006502  0.916680512  0.166696927
     0.000018083  0.916722391  0.666658687
     0.166640989  0.166669371  0.166673510
     0.166634867  0.166621963  0.666658250
     0.166590844  0.416635515  0.166508348
     0.166650174  0.416677589  0.666546561
     0.166673142  0.666665859  0.166680828
     0.166630943  0.666711005  0.666520433
     0.166667842  0.916664879  0.166671392
     0.166597229  0.916745350  0.666654832
     0.333327764  0.166641485  0.166723405
     0.333134045  0.166320560  0.666682160
     0.333073302  0.416569403  0.166169734
     0.333834407  0.416764802  0.666481400
     0.333377491  0.666633744  0.166394867
     0.333011439  0.667515204  0.666165858
     0.333331703  0.916638490  0.166662403
     0.333364868  0.916535994  0.666658838
     0.499995709  0.166606635  0.166846492
     0.500019190  0.166429295  0.666699512
     0.499965721  0.416691058  0.166524476
     0.499992149  0.666847269  0.166184797
     0.500169271  0.665354945  0.666792330
     0.499996328  0.916602212  0.166703512
     0.500024412  0.916549603  0.666637996
     0.666644314  0.166656006  0.166777216
     0.666883007  0.166336466  0.666735395
     0.666688852  0.416670949  0.166646114
     0.665827220  0.417173200  0.667352342
     0.666629914  0.666629473  0.166783973
     0.667393989  0.667395434  0.666885397
     0.666661807  0.916613776  0.166755974
     0.666700981  0.916584919  0.666707963
     0.833303588  0.166687864  0.166733411
     0.833295666  0.166697347  0.666699150
     0.833215243  0.416710181  0.166884154
     0.833368232  0.416772705  0.666817112
     0.833389491  0.666688585  0.166939358
     0.833661840  0.666820978  0.666816749
     0.833339150  0.916657978  0.166731978
     0.833428162  0.916722224  0.666694856
     0.083330484  0.041680143  0.166662826
     0.083312340  0.041701246  0.666646587
     0.083307198  0.291675660  0.166647956
     0.083308808  0.291649869  0.666605267
     0.083339289  0.541649612  0.166637546
     0.083082921  0.541634319  0.666586685
     0.083365860  0.791672147  0.166698518
     0.083350911  0.791716804  0.666648442
     0.249992246  0.041644617  0.166658920
     0.249942258  0.041524203  0.666656966
     0.249961252  0.291645423  0.166571179
     0.249993685  0.291617008  0.666573179
     0.249983572  0.541646488  0.166474176
     0.249021775  0.541453672  0.666154512
     0.250015496  0.791645741  0.166586535
     0.249861127  0.791952233  0.666549294
     0.416655135  0.041605632  0.166736935
     0.416654203  0.041527904  0.666679938
     0.416633342  0.291677586  0.166682697
     0.416049568  0.290763179  0.666636584
     0.416597758  0.541688809  0.166278333
     0.416656235  0.791653328  0.166545263
     0.416754708  0.791345568  0.666610157
     0.583345375  0.041605243  0.166753529
     0.583362686  0.041531962  0.666692042
     0.583311599  0.291718159  0.166718450
     0.584036929  0.290753822  0.666825017
     0.583311526  0.541678699  0.166567610
     0.583332547  0.791577098  0.166746345
     0.583430503  0.791500540  0.666674565
     0.749991630  0.041642102  0.166697031
     0.750070098  0.041548983  0.666663430
     0.749932420  0.291699339  0.166778316
     0.749849786  0.291804070  0.666775011
     0.749938911  0.541667559  0.166848071
     0.751329949  0.541792139  0.667072099
     0.750000796  0.791633899  0.166753372
     0.750230700  0.791882268  0.666741935
     0.916645022  0.041681942  0.166678912
     0.916656753  0.041706697  0.666653230
     0.916588553  0.291699182  0.166743934
     0.916629920  0.291686417  0.666672246
     0.916638670  0.541666065  0.166795648
     0.916955709  0.541697859  0.666782400
     0.916686167  0.791674705  0.166758482
     0.916760297  0.791743030  0.666719438
     0.999995798  0.000015169  0.125005257
     0.999992608  0.000044223  0.624974277
     0.999957953  0.250030787  0.125008260
     0.999961860  0.250022722  0.624973893
     0.999985679  0.500012153  0.125022896
     0.999970168  0.500051354  0.625037527
     0.000037728  0.750011761  0.125063226
     0.000046842  0.750056544  0.625032041
     0.166653955  0.999989276  0.124984630
     0.166590710  0.999987961  0.624990709
     0.166639427  0.249993402  0.124937251
     0.166652418  0.249994784  0.624964305
     0.166664127  0.499990110  0.124830304
     0.166095113  0.500079536  0.624907921
     0.166668924  0.749992920  0.124964473
     0.166608970  0.750082924  0.624935985
     0.333334740  0.999946617  0.125001103
     0.333357415  0.999859968  0.625002700
     0.333333655  0.249973732  0.124966159
     0.333135348  0.249444134  0.625073677
     0.333309029  0.499971620  0.124561965
     0.333503362  0.500622037  0.624738032
     0.333353825  0.749957988  0.124814542
     0.332963737  0.750349234  0.624908404
     0.500000468  0.999931433  0.125039850
     0.500012729  0.999871439  0.625010951
     0.499987161  0.249902342  0.125188213
     0.500006711  0.249621579  0.625108472
     0.499998661  0.500021342  0.124660441
     0.500004343  0.750030039  0.124694409
     0.500321323  0.749239605  0.624988077
     0.666660282  0.999938175  0.125051144
     0.666675326  0.999888421  0.625020835
     0.666622768  0.250005686  0.125071782
     0.666838094  0.249489183  0.625188078
     0.666629143  0.500002855  0.124949534
     0.666742532  0.501750553  0.627114427
     0.666667020  0.749953095  0.125066597
     0.667044628  0.750279206  0.625151620
     0.833339592  0.999990682  0.125021311
     0.833397857  0.999985825  0.624996542
     0.833283425  0.250026501  0.125063545
     0.833257648  0.250136147  0.625036635
     0.833302618  0.500026508  0.125154021
     0.833886544  0.500132587  0.625239550
     0.833382890  0.750014985  0.125132456
     0.833507888  0.750120568  0.625088125
     0.083309735  0.125013133  0.124992482
     0.083292034  0.125013711  0.624981035
     0.083278965  0.375005672  0.124911784
     0.083333173  0.374992901  0.624969219
     0.083358164  0.625006090  0.125004933
     0.083285912  0.625043988  0.624963826
     0.083335921  0.875003955  0.125016352
     0.083306443  0.875046076  0.624986934
     0.249992746  0.124978827  0.125006943
     0.249918989  0.124790577  0.625019852
     0.249891073  0.374946637  0.124598746
     0.250248493  0.375147234  0.624949498
     0.249976302  0.625006711  0.124870497
     0.249851172  0.625069895  0.624756506
     0.250003322  0.874972201  0.124950706
     0.249868025  0.875112090  0.624978378
     0.416670446  0.124925173  0.125092966
     0.416638453  0.124792876  0.625041074
     0.416607703  0.375012620  0.124727432
     0.416736105  0.373722215  0.625652963
     0.416777699  0.624966774  0.124415232
     0.416061788  0.624343310  0.624806546
     0.416667179  0.874952165  0.124934999
     0.416793947  0.874762042  0.624974433
     0.583321622  0.124922570  0.125123301
     0.583370492  0.124802664  0.625055438
     0.583323416  0.375099573  0.124813305
     0.583197053  0.373765654  0.625975341
     0.583290054  0.625000453  0.124747903
     0.584936132  0.623813692  0.626818532
     0.583334948  0.874919117  0.125072247
     0.583335809  0.874848103  0.625020830
     0.749981993  0.124990490  0.125056490
     0.750066924  0.124829486  0.625042120
     0.749965626  0.375023077  0.125007091
     0.749629642  0.375542948  0.625208472
     0.750103067  0.625058556  0.125300171
     0.750529024  0.625244942  0.625192183
     0.750009170  0.874969877  0.125069488
     0.750135448  0.875073612  0.625051944
     0.916650061  0.125020783  0.125016447
     0.916648101  0.125050312  0.624987263
     0.916596071  0.375038660  0.125108203
     0.916618905  0.375027255  0.625066603
     0.916726839  0.625027429  0.125180248
     0.916856508  0.625087311  0.625101970
     0.916695213  0.875008595  0.125057485
     0.916735082  0.875051572  0.625020139
     0.999964863  0.083373890  0.458318287
     0.999999171  0.083339666  0.958338557
     0.999916938  0.333377040  0.458352661
     0.999996153  0.333331454  0.958325776
     0.999945030  0.583354440  0.458363806
     0.000100240  0.583359658  0.958429567
     0.999996214  0.833355611  0.458349941
     0.000046036  0.833350247  0.958388960
     0.166635410  0.083323673  0.458304944
     0.166661737  0.083297788  0.958331840
     0.166711081  0.333384845  0.458317009
     0.166660623  0.333299742  0.958133673
     0.166589284  0.583343362  0.458216456
     0.166718152  0.583329755  0.958223789
     0.166632762  0.833346467  0.458289068
     0.166670267  0.833315726  0.958320660
     0.333328454  0.083264354  0.458356536
     0.333327846  0.083219399  0.958378896
     0.333507406  0.333520244  0.458417817
     0.333360534  0.333277292  0.958126224
     0.333284620  0.583300273  0.458182937
     0.333277508  0.583356070  0.958030015
     0.333281682  0.833297894  0.458245760
     0.333363646  0.833245836  0.958219235
     0.499992474  0.083264986  0.458392892
     0.500004465  0.083226345  0.958406445
     0.499830363  0.333550865  0.458653117
     0.500046525  0.332884156  0.958764597
     0.499378352  0.582672605  0.458099087
     0.500372220  0.583089036  0.957103469
     0.500023196  0.833105176  0.458432010
     0.500030920  0.833272835  0.958231069
     0.666644804  0.083288101  0.458371830
     0.666683434  0.083220331  0.958415892
     0.666158970  0.333681892  0.458690148
     0.666719141  0.333301312  0.958334330
     0.666309290  0.583272836  0.458774499
     0.667169843  0.583523759  0.958845720
     0.666644703  0.833207785  0.458394653
     0.666717594  0.833291158  0.958378699
     0.833300444  0.083345034  0.458319860
     0.833341860  0.083310074  0.958357987
     0.833061435  0.333501568  0.458530045
     0.833359057  0.333324811  0.958359981
     0.833245839  0.583368216  0.458491144
     0.833586853  0.583402770  0.958645136
     0.833348734  0.833322160  0.458373231
     0.833429401  0.833363564  0.958438874
     0.083317196  0.208368560  0.458327936
     0.083338504  0.208322231  0.958314633
     0.083228158  0.458357608  0.458253356
     0.083383061  0.458327196  0.958269947
     0.083320347  0.708354019  0.458336865
     0.083394935  0.708334532  0.958347278
     0.083318098  0.958353862  0.458314824
     0.083344521  0.958332154  0.958354850
     0.249995729  0.208326603  0.458345677
     0.250006247  0.208278929  0.958329173
     0.249979395  0.458474022  0.458198963
     0.250075571  0.458309103  0.958022373
     0.249954700  0.708331407  0.458238713
     0.250010441  0.708305367  0.958240065
     0.249966425  0.958316946  0.458340919
     0.250000133  0.958267977  0.958350935
     0.416639672  0.208319661  0.458402161
     0.416658429  0.208161780  0.958475872
     0.416810146  0.458960948  0.458015746
     0.416752021  0.458362570  0.957506929
     0.416532817  0.708130727  0.458256054
     0.416744275  0.708235273  0.957964432
     0.416670164  0.958216192  0.458373910
     0.416661853  0.958247310  0.958326842
     0.583284073  0.208351089  0.458431186
     0.583375328  0.208149474  0.958538517
     0.581398380  0.459243322  0.459891238
     0.583461695  0.458609794  0.957582526
     0.583244808  0.707771196  0.459137792
     0.583408149  0.708301813  0.958208695
     0.583335439  0.958228490  0.458389418
     0.583352077  0.958248075  0.958380065
     0.749896802  0.208409297  0.458411416
     0.750002636  0.208299382  0.958410420
     0.749245175  0.458649634  0.459274173
[...]
 196      -0.005     0.001    -0.009      -0.692
 197      -0.004    -0.001    -0.022      -0.131
 198       0.001    -0.000    -0.002       0.907
 199       0.002    -0.001    -0.004       0.873
 200       0.002     0.001    -0.003       0.350
 201      -0.001     0.001    -0.010      -0.162
 202       0.005    -0.000     0.015      -0.372
 203      -0.019    -0.018    -0.062      -0.023
 204      -0.029    -0.017    -0.052      -0.240
 205      -0.103    -0.100    -0.191      -0.018
 206       0.002     0.001    -0.003       0.411
 207      -0.014    -0.011    -0.025      -0.129
 208      -0.005     0.001     0.005       1.062
 209       0.006     0.005    -0.012       0.130
 210      -0.068    -0.058    -0.155      -0.064
 211      -0.585    -0.570    -0.826      -0.018
 212      -0.024    -0.016    -0.048      -0.153
 213      -1.726    -1.698    -2.468      -0.011
 214      -0.004     0.001     0.005       0.982
 215      -0.001    -0.000    -0.018      -0.044
 216       0.004    -0.003    -0.009       0.756
 217       0.007     0.005    -0.014       0.166
 218      -0.063    -0.061    -0.156      -0.013
 219      -0.061    -0.052    -0.146      -0.064
 220      -0.593    -0.580    -0.837      -0.015
 221       0.005     0.000    -0.006       0.842
 222       0.008     0.006    -0.009       0.185
 223       0.004     0.001    -0.005       0.572
 224       0.006     0.005    -0.009       0.090
 225      -0.163    -0.152    -0.262      -0.042
 226      -0.035     0.034     0.044       1.572
 227       0.010     0.003    -0.011       0.676
 228       0.011     0.005    -0.042       0.147
 229       0.003     0.001    -0.004       0.470
 230       0.004     0.003    -0.008       0.094
 231       0.001     0.001    -0.003       0.136
 232      -0.003     0.002     0.004       1.152
 233      -0.009    -0.001    -0.018      -0.395
 234       0.003    -0.000    -0.022       0.135
 235      -0.004     0.003    -0.008      -0.838
 236       0.004     0.002    -0.016       0.160
 237       0.002     0.000    -0.002       0.616
 238      -0.003     0.000     0.004       0.896
 239       0.002     0.001    -0.002       0.368
 240       0.003    -0.000    -0.005       0.711
 241       0.003    -0.000    -0.004       0.749
 242      -0.007     0.005     0.007       1.760
 243      -0.006    -0.003     0.008       0.434
 244      -0.105    -0.098    -0.186      -0.042
 245      -0.003     0.000    -0.006      -0.491
 246      -0.005    -0.004    -0.020      -0.062
 247       0.003     0.001    -0.004       0.428
 248       0.004     0.003    -0.007       0.116
 249      -0.004     0.002    -0.011      -0.641
 250      -0.006    -0.005    -0.037      -0.035
 251      -0.023    -0.013    -0.046      -0.228
 252      -1.750    -1.722    -2.514      -0.011
 253      -0.004    -0.002     0.005       0.266
 254      -0.117    -0.110    -0.187      -0.037
 255       0.005     0.001    -0.006       0.644
 256       0.005     0.003    -0.010       0.154
 257       0.010     0.003    -0.011       0.714
 258       0.019     0.013    -0.036       0.180
 259      -0.079    -0.076    -0.187      -0.013
 260       0.006     0.000     0.015      -0.386
 261      -0.015    -0.013    -0.058      -0.038
 262       0.004     0.001    -0.005       0.528
 263       0.003     0.003    -0.009       0.086
 264      -0.009     0.002     0.011       1.026
 265       0.039    -0.005     0.047      -0.945
 266      -0.073    -0.069    -0.164      -0.027
 267      -0.006     0.002    -0.012      -0.634
 268      -0.004    -0.003    -0.035      -0.039
 269       0.002     0.001    -0.003       0.132
 270       0.003     0.001    -0.005       0.425
 271      -0.003     0.001    -0.011      -0.333
 272       0.012    -0.008     0.013      -1.536
 273      -0.010    -0.000     0.012       0.834
 274       0.025     0.017    -0.030       0.282
 275       0.003     0.001    -0.004       0.705
 276       0.005     0.004    -0.009       0.136
 277       0.002     0.000    -0.002       0.800
 278       0.003    -0.001    -0.003       1.134
 279       0.001    -0.001    -0.005       0.366
 280       0.004     0.002    -0.006       0.318
 281       0.007    -0.000    -0.008       1.015
 282       0.004    -0.000    -0.028       0.152
 283      -0.002    -0.001    -0.005      -0.114
 284       0.002    -0.002    -0.007       0.594
 285       0.002     0.000    -0.002       0.709
 286       0.003    -0.000    -0.003       1.154
 287       0.001     0.001    -0.002       0.346
 288       0.003    -0.002    -0.006       0.719
 289       0.006    -0.002    -0.008       1.058
 290      -0.021    -0.017    -0.063      -0.066
 291      -0.002     0.001     0.004       0.836
 292       0.004     0.003    -0.007       0.242
 293       0.002     0.001    -0.003       0.155
 294      -0.004    -0.003    -0.013      -0.103
 295      -0.002     0.001     0.004       0.628
 296      -0.002    -0.001    -0.018      -0.051
 297      -0.006    -0.002     0.011       0.314
 298      -0.201    -0.193    -0.341      -0.022
 299       0.002     0.001     0.008      -0.108
 300       0.022    -0.002     0.024      -0.995
 301       0.004     0.001    -0.005       0.638
 302       0.005     0.004    -0.008       0.071
 303      -0.005    -0.001     0.007       0.558
 304       0.014     0.010    -0.018       0.180
 305       0.018    -0.018     0.020      -1.758
 306       1.070     0.842     1.135      -0.201
 307      -0.006    -0.001     0.009       0.561
 308      -0.196    -0.191    -0.324      -0.018
 309       0.005     0.001    -0.005       0.750
 310       0.005     0.004    -0.009       0.135
 311      -0.016    -0.006    -0.021      -0.448
 312       0.019    -0.018     0.021      -1.710
 313      -0.030     0.029     0.033       1.793
 314      -0.059    -0.046    -0.073      -0.182
 315       0.026     0.019    -0.035       0.210
 316       0.003     0.001    -0.004       0.417
 317       0.003     0.002    -0.008       0.100
 318      -0.005     0.001     0.006       0.984
 319      -0.027    -0.024    -0.057      -0.060
 320      -0.015     0.010     0.016       1.530
 321      -0.048     0.002    -0.154      -0.329
 322      -0.004    -0.001     0.006       0.636
 323       0.013     0.010    -0.016       0.161
 324       0.002     0.001    -0.002       0.397
 325       0.003    -0.000    -0.004       0.758
 326       0.003     0.001    -0.003       0.579
 327       0.003     0.002    -0.009       0.179
 328      -0.007    -0.000     0.009       0.783
 329       0.010     0.006    -0.035       0.117
 330      -0.003     0.001     0.004       0.928
 331       0.006     0.004    -0.008       0.213
 332       0.001     0.001    -0.002       0.427
 333       0.004     0.000    -0.005       0.683
 334       0.004    -0.003    -0.006       1.112
 335      -0.010     0.009     0.010       1.811
 336       0.002    -0.001     0.011      -0.261
 337       0.022    -0.006     0.024      -1.162
 338      -0.002     0.001     0.002       1.831
 339       0.003    -0.003     0.006      -0.992
 340       0.003     0.001    -0.004       0.628
 341       0.004     0.004    -0.008       0.095
 342      -0.064    -0.050    -0.078      -0.170
 343       0.024     0.016    -0.036       0.206
 344      -0.149    -0.140    -0.190      -0.047
 345       0.152     0.062     0.161      -0.555
 346       0.002    -0.002    -0.005       0.790
 347      -0.034    -0.033    -0.063      -0.025
 348      -0.005     0.001     0.006       1.005
 349       0.007     0.005    -0.011       0.157
 350       0.030     0.005     0.033      -0.762
 351       0.087    -0.031     0.109      -1.089
 352       0.025    -0.011     0.026      -1.371
 353       1.159     0.937     1.220      -0.182
 354       0.004    -0.003    -0.007       0.957
 355      -0.011     0.010     0.011       1.869
 356      -0.005     0.001     0.005       1.092
 357       0.006     0.005    -0.010       0.078
 358      -0.013     0.012     0.016       1.567
 359      -0.295    -0.228    -0.452      -0.148
 360       0.031     0.006     0.035      -0.716
 361       0.100    -0.023     0.120      -1.020
 362      -0.004     0.000     0.006       0.751
 363       0.002     0.001    -0.018       0.045
 364       0.002     0.001    -0.003       0.318
 365      -0.003    -0.001    -0.011      -0.194
 366      -0.094    -0.086    -0.133      -0.064
 367       0.006    -0.000    -0.038       0.154
 368      -0.013    -0.004    -0.020      -0.488
 369      -0.020     0.016     0.020       1.805
 370       0.002     0.001    -0.003       0.451
 371       0.004     0.002    -0.006       0.305
 372      -0.001     0.000     0.002       0.938
 373       0.003    -0.001    -0.003       1.275
 374      -0.005     0.000     0.006       0.922
 375       0.005     0.004    -0.012       0.030
 376      -0.005     0.000     0.007       0.795
 377       0.009     0.008    -0.011       0.158
 378      -0.001    -0.000     0.002       0.334
 379      -0.002    -0.001     0.004       0.261
 380      -0.003    -0.001     0.003       0.684
 381      -0.002     0.000     0.002       0.994
 382       0.005     0.002    -0.008       0.283
 383       0.004     0.000    -0.005       0.673
 384       0.008     0.004    -0.013       0.324
 385      -0.006     0.002     0.009       0.927
 386      -0.003     0.001     0.004       0.857
 387      -0.002     0.001     0.002       1.188
 388       0.002    -0.000    -0.006       0.311
 389       0.002     0.001    -0.004       0.151
 390       0.009    -0.009     0.013      -1.433
 391      -0.004     0.003    -0.012      -0.586
 392       0.020    -0.012     0.029      -1.116
 393       0.018    -0.000     0.028      -0.648
 394       0.004     0.003    -0.008       0.095
 395       0.004    -0.003     0.005      -1.391
 396       0.004     0.004    -0.008       0.112
 397       0.004     0.001    -0.005       0.584
 398       0.029     0.020    -0.030       0.277
 399       0.009    -0.009     0.015      -1.237
 400       0.136     0.052     0.173      -0.487
 401      -0.548    -0.544    -0.797      -0.004
 402       0.004     0.001    -0.019       0.190
 403      -0.006    -0.001    -0.017      -0.299
 404       0.007     0.005    -0.009       0.205
 405       0.005     0.001    -0.006       0.698
 406       0.088    -0.000     0.099      -0.888
 407      -0.023    -0.014    -0.054      -0.165
 408       1.162     0.935     1.223      -0.186
 409       0.057     0.010     0.063      -0.738
 410      -0.010     0.010     0.013       1.483
 411       0.005    -0.002    -0.011       0.702
 412       0.004     0.003    -0.007       0.081
 413       0.003     0.001    -0.004       0.456
 414       0.058     0.020     0.067      -0.565
 415       0.008    -0.000    -0.009       0.866
 416       0.090     0.002     0.103      -0.853
 417      -0.007     0.003    -0.031      -0.331
 418       0.002     0.001    -0.016       0.036
 419      -0.004     0.002     0.005       1.089
 420       0.003     0.001    -0.004       0.730
 421       0.002     0.001    -0.002       0.409
 422      -0.003    -0.001    -0.024      -0.081
 423      -0.015    -0.009    -0.023      -0.255
 424      -0.014     0.011     0.015       1.640
 425      -0.007    -0.001     0.008       0.757
 426       0.004     0.001    -0.005       0.562
 427       0.002     0.001    -0.002       0.315
 428       0.004     0.001    -0.004       0.625
 429       0.001     0.001    -0.002       0.066
 430       0.005    -0.001    -0.022       0.267
 431      -0.006     0.002    -0.017      -0.438
 432      -0.008     0.006     0.009       1.582
 433       0.006     0.001    -0.007       0.629
 434       0.003     0.000    -0.004       0.630
 435       0.002     0.001    -0.002       0.441
 436       0.002     0.001    -0.015       0.018
 437      -0.004     0.002     0.006       1.024
 438       0.086     0.057     0.112      -0.261
 439       0.016    -0.013     0.023      -1.267
 440       0.019    -0.012     0.025      -1.231
 441       0.019     0.001     0.025      -0.709
 442       0.002     0.001    -0.008       0.058
 443       0.002     0.000    -0.006       0.296
 444       0.013     0.011    -0.014       0.125
 445      -0.006     0.001     0.007       0.971
 446       1.072     0.842     1.138      -0.202
 447       0.063     0.015     0.069      -0.695
 448       0.086     0.057     0.110      -0.262
 449       0.016    -0.013     0.023      -1.288
 450       0.006     0.004    -0.009       0.228
 451       0.005     0.001    -0.007       0.568
 452      -0.013     0.011     0.014       1.732
 453      -0.005     0.000     0.006       0.894
 454       0.414    -0.127     0.448      -1.210
 455       0.018     0.007    -0.035       0.288
 456       0.029     0.021    -0.030       0.272
 457       0.009    -0.009     0.015      -1.213
 458       0.005     0.004    -0.008       0.155
 459       0.004     0.001    -0.005       0.583
 460       0.008    -0.004     0.008      -1.480
 461      -0.003     0.001     0.003       1.131
 462       0.055     0.014     0.065      -0.628
 463      -0.008     0.000     0.011       0.734
 464      -0.012     0.011     0.012       1.902
 465       0.006     0.000    -0.006       0.902
 466       0.002     0.000    -0.006       0.291
 467       0.002     0.001    -0.003       0.141
 468       0.003    -0.001    -0.005       0.717
 469       0.001     0.000    -0.002       0.634
 470       0.008     0.003    -0.015       0.286
 471       0.005    -0.002    -0.009       0.828
 472       0.005     0.004    -0.007       0.225
 473       0.004     0.001    -0.004       0.787
 474      -0.002    -0.000     0.003       0.648
 475      -0.002     0.000     0.002       0.846
 476      -0.001    -0.001     0.002       0.214
 477       0.002    -0.002    -0.003       1.126
 478      -0.007     0.002     0.008       1.158
 479      -0.008     0.005     0.009       1.472
 480      -0.006     0.002     0.007       1.139
 481       0.008     0.005    -0.008       0.368
 482      -0.002    -0.000     0.002       0.744
 483      -0.002    -0.000     0.003       0.733
 484       0.003     0.002    -0.004       0.091
 485       0.003     0.002    -0.006       0.151
 486       0.005    -0.003    -0.018       0.435
 487       0.017     0.013    -0.019       0.197
 488      -0.005     0.003    -0.018      -0.483
 489       0.014     0.010    -0.022       0.196
 490       0.002     0.002    -0.003       0.189
 491       0.004     0.004    -0.004       0.164
 492       0.004     0.002    -0.009       0.278
 493       0.006     0.004    -0.009       0.269
 494      -0.208    -0.200    -0.345      -0.025
 495       0.089    -0.001     0.095      -0.957
 496       0.016    -0.013     0.025      -1.200
 497       0.134     0.043     0.142      -0.640
 498       0.005     0.002    -0.006       0.581
 499       0.007     0.005    -0.008       0.228
 500       0.008     0.004    -0.009       0.483
 501       0.009     0.005    -0.009       0.393
 502       0.111     0.015     0.116      -0.835
 503      -0.290    -0.224    -0.455      -0.146
 504      -0.186    -0.178    -0.318      -0.024
 505       0.090     0.000     0.097      -0.921
 506       0.006     0.002    -0.007       0.567
 507      -0.003     0.001    -0.017      -0.190
 508       0.004     0.002    -0.008       0.214
 509       0.005     0.003    -0.007       0.207
 510      -0.546    -0.540    -0.782      -0.007
 511       0.021     0.013    -0.027       0.305
 512      -0.017     0.012     0.018       1.632
 513      -0.017     0.016     0.021       1.565
 514       0.004     0.002    -0.005       0.280
 515       0.003     0.002    -0.007       0.103
 516       0.003     0.001    -0.003       0.407
 517       0.002     0.000    -0.004       0.451
 518      -0.009     0.006     0.013       1.151
 519       0.009     0.004    -0.011       0.495
 520      -0.007     0.004     0.008       1.394
 521       0.008     0.004    -0.009       0.409
 522       0.002    -0.000    -0.003       0.516
 523      -0.003     0.000     0.003       1.000
 524       0.002     0.001    -0.003       0.598
 525       0.003     0.001    -0.003       0.665
 526       0.004     0.002    -0.005       0.425
 527      -0.003    -0.002    -0.015      -0.074
 528      -0.008     0.002     0.011       0.945
 529       0.018    -0.006     0.025      -0.944
 530       0.003     0.002    -0.003       0.355
 531       0.005     0.004    -0.006       0.189
 532       0.003     0.002    -0.005       0.223
 533       0.004     0.003    -0.005       0.154
 534      -0.007     0.007     0.011       1.266
 535       0.012     0.009    -0.012       0.209
 536      -0.015     0.014     0.024       1.207
 537       0.125     0.032     0.135      -0.688
 538      -0.005     0.003     0.008       1.107
 539       0.020    -0.002     0.023      -0.928
 540       0.005     0.002    -0.007       0.437
 541       0.005     0.003    -0.008       0.297
 542      -0.017     0.013     0.019       1.568
 543      -0.017     0.016     0.020       1.627
 544       0.133     0.038     0.144      -0.664
 545       0.399    -0.156     0.429      -1.294
 546       0.004    -0.003    -0.019       0.349
 547       0.016     0.013    -0.020       0.155
 548       0.005     0.003    -0.006       0.377
 549       0.004     0.002    -0.007       0.233
 550       0.016     0.011    -0.018       0.247
 551       0.011    -0.010     0.022      -0.946
 552       0.122     0.024     0.124      -0.789
 553      -0.052     0.004    -0.147      -0.382
 554      -0.008     0.007     0.012       1.239
 555      -0.012     0.010     0.012       1.754
 556       0.002     0.001    -0.004       0.199
 557       0.003     0.002    -0.004       0.329
 558       0.009     0.006    -0.009       0.312
 559       0.006     0.003    -0.009       0.301
 560       0.017     0.010    -0.020       0.334
 561      -0.015     0.010     0.020       1.217
 562       0.003     0.002    -0.007       0.115
 563       0.004     0.004    -0.007       0.101
 564       0.002     0.000    -0.002       0.931
 565      -0.002    -0.000     0.003       0.915
 566       0.003     0.001    -0.006       0.311
 567      -0.003    -0.002    -0.010      -0.112
 568       0.008     0.001    -0.010       0.640
 569      -0.010     0.004     0.010       1.397
 570      -0.003     0.001     0.003       1.400
 571       0.003     0.001    -0.004       0.699
 572       0.638     0.560     0.761      -0.102
 573      -0.242    -0.035     0.400       0.517
 574     -14.789   -14.747   -25.744      -0.002
 575     -14.753   -14.713   -25.821      -0.002
 576       0.579     0.512     0.709      -0.095
 ---------------------------------------------------------------------



--------------------------------------------------------------------------------------------------------


     LOOP+:  cpu time 1229.5241: real time 1235.2994
    4ORBIT:  cpu time    0.0000: real time    0.0000

 total amount of memory used by VASP MPI-rank0   238698. kBytes
=======================================================================

   base      :      30000. kBytes
   nonlr-proj:       9221. kBytes
   fftplans  :      15014. kBytes
   grid      :      46644. kBytes
   one-center:        294. kBytes
   wavefun   :     137525. kBytes
 
  
  
 General timing and accounting informations for this job:
 ========================================================
  
                  Total CPU time used (sec):     1256.921
                            User time (sec):     1255.847
                          System time (sec):        1.073
                         Elapsed time (sec):     1264.722
  
                   Maximum memory used (kb):      436556.
                   Average memory used (kb):          N/A
  
                          Minor page faults:       194490
                          Major page faults:           13
                 Voluntary context switches:        13133
