 vasp.6.2.0 18Jan21 (build Apr 30 2021 19:00:08) gamma-only                     
  
 executed on             LinuxIFC date 2022.12.30  12:15:12
 running on   24 total cores
 distrk:  each k-point on   24 cores,    1 groups
 distr:  one band on NCORE=   6 cores,    4 groups


--------------------------------------------------------------------------------------------------------


 INCAR:
   SYSTEM = Diamond
   PREC = Normal
   ISTART = 0
   ICHARG = 11
   ISPIN = 2
   MAGMOM = 572*0.0 1*2.0 2*2.0 1*3
   NPAR = 4
   NELECT = 2303
   LHYPERFINE = T
   LEFG = T
   ENCUT = 700
   NELM = 1000
   NELMIN = 4
   EDIFF = 1E-06
   LREAL = Auto
   ALGO = Normal
   EDIFFG = -1E-02
   NSW = 0
   IBRION = 2
   ISIF = 2
   ISYM = 2
   POTIM = 0.5
   ISMEAR = 0
   SIGMA = 0.05
   NEDOS = 1000
   LWAVE = F
   LCHARG = F
   LVHAR = F
   LELF = F

 POTCAR:    PAW_PBE C 08Apr2002                   
 POTCAR:    PAW_PBE H 15Jun2001                   
 POTCAR:    PAW_PBE C 08Apr2002                   
 POTCAR:    PAW_PBE N 08Apr2002                   
 POTCAR:    PAW_PBE C 08Apr2002                   
   VRHFIN =C: s2p2                                                                                  
   LEXCH  = PE                                                                                      
   EATOM  =   147.1560 eV,   10.8157 Ry                                                             
                                                                                                    
   TITEL  = PAW_PBE C 08Apr2002                                                                     
   LULTRA =        F    use ultrasoft PP ?                                                          
   IUNSCR =        1    unscreen: 0-lin 1-nonlin 2-no                                               
   RPACOR =    1.200    partial core radius                                                         
   POMASS =   12.011; ZVAL   =    4.000    mass and valenz                                          
   RCORE  =    1.500    outmost cutoff radius                                                       
   RWIGS  =    1.630; RWIGS  =    0.863    wigner-seitz radius (au A)                               
   ENMAX  =  400.000; ENMIN  =  300.000 eV                                                          
   ICORE  =        2    local potential                                                             
   LCOR   =        T    correct aug charges                                                         
   LPAW   =        T    paw PP                                                                      
   EAUG   =  644.873                                                                                
   DEXC   =    0.000                                                                                
   RMAX   =    1.529    core radius for proj-oper                                                   
   RAUG   =    1.300    factor for augmentation sphere                                              
   RDEP   =    1.501    radius for radial grids                                                     
   RDEPT  =    1.300    core radius for aug-charge                                                  
                                                                                                    
   Atomic configuration                                                                             
    4 entries                                                                                       
     n  l   j            E        occ.                                                              
     1  0  0.50      -273.3789   2.0000                                                             
     2  0  0.50       -13.7508   2.0000                                                             
     2  1  0.50        -5.2854   2.0000                                                             
     3  2  1.50        -5.4423   0.0000                                                             
   Description                                                                                      
     l       E           TYP  RCUT    TYP  RCUT                                                     
     0    -13.7508458     23  1.200                                                                 
     0     -8.2022199     23  1.200                                                                 
     1     -5.2854383     23  1.500                                                                 
     1     34.0145650     23  1.500                                                                 
     2     -5.4423304      7  1.500                                                                 
  local pseudopotential read in
  partial core-charges read in
  partial kinetic energy density read in
  atomic valenz-charges read in
  non local Contribution for L=           0  read in
    real space projection operators read in
  non local Contribution for L=           0  read in
    real space projection operators read in
  non local Contribution for L=           1  read in
    real space projection operators read in
  non local Contribution for L=           1  read in
    real space projection operators read in
    PAW grid and wavefunctions read in
 
   number of l-projection  operators is LMAX  =           4
   number of lm-projection operators is LMMAX =           8
 
 POTCAR:    PAW_PBE H 15Jun2001                   
   VRHFIN =H: ultrasoft test                                                                        
   LEXCH  = PE                                                                                      
   EATOM  =    12.4884 eV,    0.9179 Ry                                                             
                                                                                                    
   TITEL  = PAW_PBE H 15Jun2001                                                                     
   LULTRA =        F    use ultrasoft PP ?                                                          
   IUNSCR =        0    unscreen: 0-lin 1-nonlin 2-no                                               
   RPACOR =    0.000    partial core radius                                                         
   POMASS =    1.000; ZVAL   =    1.000    mass and valenz                                          
   RCORE  =    1.100    outmost cutoff radius                                                       
   RWIGS  =    0.700; RWIGS  =    0.370    wigner-seitz radius (au A)                               
   ENMAX  =  250.000; ENMIN  =  200.000 eV                                                          
   RCLOC  =    0.701    cutoff for local pot                                                        
   LCOR   =        T    correct aug charges                                                         
   LPAW   =        T    paw PP                                                                      
   EAUG   =  400.000                                                                                
   RMAX   =    1.123    core radius for proj-oper                                                   
   RAUG   =    1.200    factor for augmentation sphere                                              
   RDEP   =    1.112    radius for radial grids                                                     
   RDEPT  =    0.926    core radius for aug-charge                                                  
                                                                                                    
   Atomic configuration                                                                             
    2 entries                                                                                       
     n  l   j            E        occ.                                                              
     1  0  0.50        -6.4927   1.0000                                                             
     2  1  0.50        -3.4015   0.0000                                                             
   Description                                                                                      
     l       E           TYP  RCUT    TYP  RCUT                                                     
     0     -6.4927494     23  1.100                                                                 
     0      6.8029130     23  1.100                                                                 
     1     -4.0817478     23  1.100                                                                 
  local pseudopotential read in
  atomic valenz-charges read in
  non local Contribution for L=           0  read in
    real space projection operators read in
  non local Contribution for L=           0  read in
    real space projection operators read in
  non local Contribution for L=           1  read in
    real space projection operators read in
    PAW grid and wavefunctions read in
 
   number of l-projection  operators is LMAX  =           3
   number of lm-projection operators is LMMAX =           5
 
 POTCAR:    PAW_PBE C 08Apr2002                   
   VRHFIN =C: s2p2                                                                                  
   LEXCH  = PE                                                                                      
   EATOM  =   147.1560 eV,   10.8157 Ry                                                             
                                                                                                    
   TITEL  = PAW_PBE C 08Apr2002                                                                     
   LULTRA =        F    use ultrasoft PP ?                                                          
   IUNSCR =        1    unscreen: 0-lin 1-nonlin 2-no                                               
   RPACOR =    1.200    partial core radius                                                         
   POMASS =   12.011; ZVAL   =    4.000    mass and valenz                                          
   RCORE  =    1.500    outmost cutoff radius                                                       
   RWIGS  =    1.630; RWIGS  =    0.863    wigner-seitz radius (au A)                               
   ENMAX  =  400.000; ENMIN  =  300.000 eV                                                          
   ICORE  =        2    local potential                                                             
   LCOR   =        T    correct aug charges                                                         
   LPAW   =        T    paw PP                                                                      
   EAUG   =  644.873                                                                                
   DEXC   =    0.000                                                                                
   RMAX   =    1.529    core radius for proj-oper                                                   
   RAUG   =    1.300    factor for augmentation sphere                                              
   RDEP   =    1.501    radius for radial grids                                                     
   RDEPT  =    1.300    core radius for aug-charge                                                  
                                                                                                    
   Atomic configuration                                                                             
    4 entries                                                                                       
     n  l   j            E        occ.                                                              
     1  0  0.50      -273.3789   2.0000                                                             
     2  0  0.50       -13.7508   2.0000                                                             
     2  1  0.50        -5.2854   2.0000                                                             
     3  2  1.50        -5.4423   0.0000                                                             
   Description                                                                                      
     l       E           TYP  RCUT    TYP  RCUT                                                     
     0    -13.7508458     23  1.200                                                                 
     0     -8.2022199     23  1.200                                                                 
     1     -5.2854383     23  1.500                                                                 
     1     34.0145650     23  1.500                                                                 
     2     -5.4423304      7  1.500                                                                 
  local pseudopotential read in
  partial core-charges read in
  partial kinetic energy density read in
  atomic valenz-charges read in
  non local Contribution for L=           0  read in
    real space projection operators read in
  non local Contribution for L=           0  read in
    real space projection operators read in
  non local Contribution for L=           1  read in
    real space projection operators read in
  non local Contribution for L=           1  read in
    real space projection operators read in
    PAW grid and wavefunctions read in
 
   number of l-projection  operators is LMAX  =           4
   number of lm-projection operators is LMMAX =           8
 
 POTCAR:    PAW_PBE N 08Apr2002                   
   VRHFIN =N: s2p3                                                                                  
   LEXCH  = PE                                                                                      
   EATOM  =   264.5486 eV,   19.4438 Ry                                                             
                                                                                                    
   TITEL  = PAW_PBE N 08Apr2002                                                                     
   LULTRA =        F    use ultrasoft PP ?                                                          
   IUNSCR =        1    unscreen: 0-lin 1-nonlin 2-no                                               
   RPACOR =    1.200    partial core radius                                                         
   POMASS =   14.001; ZVAL   =    5.000    mass and valenz                                          
   RCORE  =    1.500    outmost cutoff radius                                                       
   RWIGS  =    1.400; RWIGS  =    0.741    wigner-seitz radius (au A)                               
   ENMAX  =  400.000; ENMIN  =  300.000 eV                                                          
   ICORE  =        2    local potential                                                             
   LCOR   =        T    correct aug charges                                                         
   LPAW   =        T    paw PP                                                                      
   EAUG   =  627.112                                                                                
   DEXC   =    0.000                                                                                
   RMAX   =    1.529    core radius for proj-oper                                                   
   RAUG   =    1.300    factor for augmentation sphere                                              
   RDEP   =    1.514    radius for radial grids                                                     
   RDEPT  =    1.338    core radius for aug-charge                                                  
                                                                                                    
   Atomic configuration                                                                             
    4 entries                                                                                       
     n  l   j            E        occ.                                                              
     1  0  0.50      -384.7179   2.0000                                                             
     2  0  0.50       -18.5828   2.0000                                                             
     2  1  0.50        -7.0898   3.0000                                                             
     3  2  1.50        -6.8029   0.0000                                                             
   Description                                                                                      
     l       E           TYP  RCUT    TYP  RCUT                                                     
     0    -18.5828119     23  1.200                                                                 
     0    -13.5018863     23  1.200                                                                 
     1     -7.0897853     23  1.500                                                                 
     1      9.5240782     23  1.500                                                                 
     2     -6.8029130      7  1.500                                                                 
  local pseudopotential read in
  partial core-charges read in
  partial kinetic energy density read in
  atomic valenz-charges read in
  non local Contribution for L=           0  read in
    real space projection operators read in
  non local Contribution for L=           0  read in
    real space projection operators read in
  non local Contribution for L=           1  read in
    real space projection operators read in
  non local Contribution for L=           1  read in
    real space projection operators read in
    PAW grid and wavefunctions read in
 
   number of l-projection  operators is LMAX  =           4
   number of lm-projection operators is LMMAX =           8
 
 Optimization of the real space projectors (new method)

 maximal supplied QI-value         = 25.13
 optimisation between [QCUT,QGAM] = [ 13.32, 26.89] = [ 49.69,202.52] Ry 
 Optimized for a Real-space Cutoff    1.01 Angstroem

   l    n(q)    QCUT    max X(q) W(low)/X(q) W(high)/X(q)  e(spline) 
   0      8    13.321   115.676    0.29E-03    0.42E-03    0.11E-06
   0      8    13.321    87.132    0.29E-03    0.42E-03    0.11E-06
   1      8    13.321     4.429    0.39E-03    0.33E-03    0.98E-07
   1      8    13.321     2.733    0.30E-03    0.26E-03    0.97E-07
 Optimization of the real space projectors (new method)

 maximal supplied QI-value         = 34.20
 optimisation between [QCUT,QGAM] = [ 13.34, 27.02] = [ 49.83,204.46] Ry 
 Optimized for a Real-space Cutoff    0.93 Angstroem

   l    n(q)    QCUT    max X(q) W(low)/X(q) W(high)/X(q)  e(spline) 
   0      7    13.340    19.460    0.47E-03    0.72E-04    0.17E-06
   0      7    13.340    12.209    0.45E-03    0.63E-04    0.16E-06
   1      7    13.340     4.655    0.21E-03    0.61E-03    0.12E-06
 Optimization of the real space projectors (new method)

 maximal supplied QI-value         = 25.13
 optimisation between [QCUT,QGAM] = [ 13.32, 26.89] = [ 49.69,202.52] Ry 
 Optimized for a Real-space Cutoff    1.01 Angstroem

   l    n(q)    QCUT    max X(q) W(low)/X(q) W(high)/X(q)  e(spline) 
   0      8    13.321   115.676    0.29E-03    0.42E-03    0.11E-06
   0      8    13.321    87.132    0.29E-03    0.42E-03    0.11E-06
   1      8    13.321     4.429    0.39E-03    0.33E-03    0.98E-07
   1      8    13.321     2.733    0.30E-03    0.26E-03    0.97E-07
 Optimization of the real space projectors (new method)

 maximal supplied QI-value         = 25.13
 optimisation between [QCUT,QGAM] = [ 13.32, 26.89] = [ 49.69,202.52] Ry 
 Optimized for a Real-space Cutoff    1.01 Angstroem

   l    n(q)    QCUT    max X(q) W(low)/X(q) W(high)/X(q)  e(spline) 
   0      8    13.321    79.467    0.28E-03    0.38E-03    0.11E-06
   0      8    13.321    66.151    0.27E-03    0.38E-03    0.11E-06
   1      8    13.321    23.070    0.40E-03    0.78E-03    0.29E-06
   1      8    13.321    16.668    0.40E-03    0.79E-03    0.30E-06
  PAW_PBE C 08Apr2002                   :
 energy of atom  1       EATOM= -147.1560
 kinetic energy error for atom=    0.0032 (will be added to EATOM!!)
  PAW_PBE H 15Jun2001                   :
 energy of atom  2       EATOM=  -12.4884
 kinetic energy error for atom=    0.0002 (will be added to EATOM!!)
  PAW_PBE C 08Apr2002                   :
 energy of atom  3       EATOM= -147.1560
 kinetic energy error for atom=    0.0032 (will be added to EATOM!!)
  PAW_PBE N 08Apr2002                   :
 energy of atom  4       EATOM= -264.5486
 kinetic energy error for atom=    0.0061 (will be added to EATOM!!)
 
 
 POSCAR: Autosave
  positions in direct lattice
  velocities in cartesian coordinates
 exchange correlation table for  LEXCH =        8
   RHO(1)=    0.500       N(1)  =     2000
   RHO(2)=  100.500       N(2)  =     4000
 


--------------------------------------------------------------------------------------------------------


 ion  position               nearest neighbor table
   1  1.000  0.000  0.000- 285 1.55 475 1.55 381 1.55 435 1.55
   2  1.000  0.000  0.500- 380 1.55 286 1.55 474 1.55 434 1.55
   3  1.000  0.250  1.000- 287 1.55 469 1.55 383 1.55 429 1.55
   4  1.000  0.250  0.500- 288 1.55 468 1.55 382 1.55 428 1.55
   5  1.000  0.500  0.000- 289 1.55 471 1.55 431 1.55 385 1.55
   6  1.000  0.500  0.500- 384 1.55 290 1.55 470 1.55 430 1.55
   7  0.000  0.750  0.000- 473 1.55 291 1.55 433 1.55 387 1.55
   8  1.000  0.750  0.500- 292 1.55 386 1.55 472 1.55 432 1.55
   9  0.167  0.000  0.000- 293 1.55 435 1.55 389 1.55 443 1.55
  10  0.167  1.000  0.500- 434 1.55 388 1.55 294 1.55 442 1.55
  11  0.167  0.250  1.000- 429 1.55 295 1.55 437 1.55 391 1.55
  12  0.167  0.250  0.500- 296 1.55 428 1.55 390 1.55 436 1.55
  13  0.167  0.500  0.000- 297 1.55 431 1.55 393 1.55 439 1.55
  14  0.167  0.500  0.500- 430 1.55 392 1.55 298 1.55 438 1.55
  15  0.167  0.750  0.000- 441 1.55 299 1.55 433 1.55 395 1.55
  16  0.167  0.750  0.500- 300 1.55 432 1.55 394 1.55 440 1.55
  17  0.333  0.000  0.000- 301 1.55 451 1.55 397 1.55 443 1.55
  18  0.333  1.000  0.500- 302 1.55 442 1.55 396 1.55 450 1.55
  19  0.333  0.250  1.000- 303 1.55 437 1.55 445 1.55 399 1.55
  20  0.333  0.250  0.500- 436 1.54 304 1.55 444 1.55 398 1.55
  21  0.333  0.500  1.000- 305 1.55 439 1.55 401 1.55 447 1.55
  22  0.334  0.500  0.500- 400 1.54 438 1.55 306 1.55 446 1.56
  23  0.333  0.750  0.000- 307 1.55 403 1.55 441 1.55 449 1.55
  24  0.333  0.750  0.500- 402 1.55 440 1.55 308 1.55 448 1.55
  25  0.500  1.000  0.000- 309 1.55 459 1.55 405 1.55 451 1.55
  26  0.500  1.000  0.500- 310 1.55 404 1.55 458 1.55 450 1.55
  27  0.500  0.250  1.000- 311 1.54 407 1.55 453 1.55 445 1.55
  28  0.500  0.250  0.500- 312 1.55 452 1.55 444 1.55 406 1.55
  29  0.500  0.500  0.999- 409 1.55 455 1.55 447 1.55 313 1.55
  30  0.500  0.750  0.000- 314 1.55 411 1.55 457 1.55 449 1.55
  31  0.500  0.750  0.500- 315 1.54 456 1.54 448 1.55 410 1.55
  32  0.667  0.000  0.000- 316 1.55 459 1.55 467 1.55 413 1.55
  33  0.667  1.000  0.500- 466 1.55 317 1.55 412 1.55 458 1.55
  34  0.667  0.250  1.000- 318 1.55 461 1.55 453 1.55 415 1.55
  35  0.667  0.250  0.500- 460 1.54 319 1.55 452 1.55 414 1.55
  36  0.667  0.500  1.000- 320 1.55 463 1.55 417 1.55 455 1.55
  37  0.665  0.500  0.501- 416 1.54 454 1.55 462 1.56 321 1.56
  38  0.667  0.750  0.000- 322 1.55 457 1.55 419 1.55 465 1.55
  39  0.667  0.750  0.500- 323 1.55 464 1.55 418 1.55 456 1.55
  40  0.833  0.000  0.000- 324 1.55 475 1.55 467 1.55 421 1.55
  41  0.833  1.000  0.500- 474 1.55 325 1.55 420 1.55 466 1.55
  42  0.833  0.250  1.000- 469 1.55 326 1.55 461 1.55 423 1.55
  43  0.833  0.250  0.500- 327 1.55 422 1.55 468 1.55 460 1.55
  44  0.833  0.500  0.000- 328 1.55 471 1.55 425 1.55 463 1.55
  45  0.833  0.500  0.500- 329 1.55 424 1.55 470 1.55 462 1.55
  46  0.833  0.750  0.000- 465 1.54 330 1.55 473 1.55 427 1.55
  47  0.833  0.750  0.500- 472 1.55 426 1.55 331 1.55 464 1.55
  48  0.083  0.125  1.000- 332 1.55 381 1.55 429 1.55 389 1.55
  49  0.083  0.125  0.500- 380 1.55 333 1.55 428 1.55 388 1.55
  50  0.083  0.375  1.000- 383 1.55 334 1.55 431 1.55 391 1.55
  51  0.083  0.375  0.500- 335 1.55 382 1.55 430 1.55 390 1.55
  52  0.083  0.625  0.000- 393 1.55 336 1.55 385 1.55 433 1.55
  53  0.083  0.625  0.500- 384 1.55 337 1.55 432 1.55 392 1.55
  54  0.083  0.875  0.000- 395 1.55 338 1.55 387 1.55 435 1.55
  55  0.083  0.875  0.500- 386 1.55 434 1.55 339 1.55 394 1.55
  56  0.250  0.125  1.000- 340 1.55 389 1.55 397 1.55 437 1.55
  57  0.250  0.125  0.500- 388 1.55 341 1.55 436 1.55 396 1.55
  58  0.250  0.375  1.000- 342 1.54 391 1.55 439 1.55 399 1.55
  59  0.250  0.375  0.500- 343 1.55 438 1.55 390 1.55 398 1.55
  60  0.250  0.625  0.000- 401 1.54 344 1.54 441 1.55 393 1.55
  61  0.250  0.625  0.500- 345 1.55 440 1.55 392 1.55 400 1.55
  62  0.250  0.875  0.000- 346 1.55 443 1.55 395 1.55 403 1.55
  63  0.250  0.875  0.500- 442 1.55 394 1.55 347 1.55 402 1.55
  64  0.417  0.125  1.000- 348 1.55 405 1.55 445 1.55 397 1.55
  65  0.417  0.125  0.500- 396 1.55 444 1.55 404 1.55 349 1.55
  66  0.417  0.375  1.000- 350 1.55 407 1.55 399 1.55 447 1.55
  67  0.417  0.375  0.500- 398 1.54 406 1.54 351 1.55 446 1.55
  68  0.417  0.625  1.000- 449 1.55 352 1.55 401 1.55 409 1.55
  69  0.417  0.624  0.501- 400 1.54 353 1.55 448 1.55 408 1.55
  70  0.417  0.875  0.000- 354 1.55 451 1.55 411 1.55 403 1.55
  71  0.417  0.875  0.500- 355 1.55 402 1.55 410 1.55 450 1.55
  72  0.583  0.125  1.000- 356 1.55 413 1.55 405 1.55 453 1.55
  73  0.583  0.125  0.500- 412 1.55 357 1.55 404 1.55 452 1.55
  74  0.583  0.375  0.999- 415 1.55 407 1.55 358 1.55 455 1.55
  75  0.583  0.375  0.500- 414 1.54 406 1.54 454 1.55 359 1.55
  76  0.583  0.625  0.000- 360 1.55 457 1.55 417 1.55 409 1.55
  77  0.583  0.624  0.501- 416 1.54 408 1.55 361 1.56 456 1.56
  78  0.583  0.875  0.000- 459 1.55 411 1.55 419 1.55 362 1.55
  79  0.583  0.875  0.500- 363 1.55 418 1.55 410 1.55 458 1.55
  80  0.750  0.125  1.000- 364 1.55 421 1.55 413 1.55 461 1.55
  81  0.750  0.125  0.500- 420 1.55 365 1.55 460 1.55 412 1.55
  82  0.750  0.375  1.000- 366 1.54 423 1.55 463 1.55 415 1.55
  83  0.750  0.375  0.500- 367 1.54 462 1.54 414 1.55 422 1.55
  84  0.750  0.625  0.001- 417 1.54 368 1.54 425 1.55 465 1.55
  85  0.750  0.625  0.500- 424 1.55 464 1.55 369 1.55 416 1.55
  86  0.750  0.875  0.000- 370 1.55 419 1.55 427 1.55 467 1.55
  87  0.750  0.875  0.500- 426 1.55 466 1.55 371 1.55 418 1.55
  88  0.917  0.125  1.000- 372 1.55 381 1.55 469 1.55 421 1.55
  89  0.917  0.125  0.500- 373 1.55 380 1.55 468 1.55 420 1.55
  90  0.917  0.375  1.000- 383 1.55 471 1.55 374 1.55 423 1.55
  91  0.917  0.375  0.500- 375 1.55 470 1.55 422 1.55 382 1.55
  92  0.917  0.625  0.000- 425 1.54 376 1.55 385 1.55 473 1.55
  93  0.917  0.625  0.500- 384 1.55 377 1.55 472 1.55 424 1.55
  94  0.917  0.875  0.000- 427 1.55 378 1.55 387 1.55 475 1.55
  95  0.917  0.875  0.500- 474 1.55 386 1.55 379 1.55 426 1.55
  96  1.000  0.083  0.333- 380 1.55 476 1.55 564 1.55 524 1.55
  97  1.000  0.083  0.833- 381 1.55 477 1.55 565 1.55 525 1.55
  98  1.000  0.333  0.333- 382 1.55 478 1.55 566 1.55 526 1.55
  99  1.000  0.333  0.833- 383 1.55 567 1.55 479 1.55 527 1.55
 100  1.000  0.583  0.333- 384 1.55 480 1.55 568 1.55 528 1.55
 101  0.000  0.583  0.833- 569 1.54 529 1.55 385 1.55 481 1.55
 102  1.000  0.833  0.333- 386 1.55 530 1.55 482 1.55 570 1.55
 103  0.000  0.833  0.833- 571 1.55 531 1.55 483 1.55 387 1.55
 104  0.167  0.083  0.333- 524 1.55 388 1.55 484 1.55 532 1.55
 105  0.167  0.083  0.833- 525 1.55 389 1.55 485 1.55 533 1.55
 106  0.167  0.333  0.333- 526 1.55 390 1.55 486 1.55 534 1.55
 107  0.167  0.333  0.833- 391 1.55 527 1.55 487 1.55 535 1.55
 108  0.167  0.583  0.333- 392 1.55 528 1.55 488 1.55 536 1.55
 109  0.167  0.583  0.834- 537 1.54 393 1.55 529 1.55 489 1.55
 110  0.167  0.833  0.333- 394 1.55 530 1.55 490 1.55 538 1.55
 111  0.167  0.833  0.833- 539 1.55 491 1.55 531 1.55 395 1.55
 112  0.333  0.083  0.333- 532 1.55 396 1.55 540 1.55 492 1.55
 113  0.333  0.083  0.833- 493 1.55 397 1.55 533 1.55 541 1.55
 114  0.333  0.333  0.333- 534 1.54 542 1.55 494 1.55 398 1.55
 115  0.333  0.333  0.833- 399 1.55 543 1.55 535 1.55 495 1.55
 116  0.333  0.583  0.334- 496 1.55 536 1.55 544 1.55 400 1.55
 117  0.333  0.584  0.835- 401 1.54 545 1.54 497 1.55 537 1.55
 118  0.333  0.833  0.333- 402 1.55 538 1.55 546 1.55 498 1.55
 119  0.333  0.833  0.833- 499 1.55 403 1.55 539 1.55 547 1.55
 120  0.500  0.083  0.333- 404 1.55 548 1.55 540 1.55 500 1.55
 121  0.500  0.083  0.833- 405 1.55 501 1.55 549 1.55 541 1.55
 122  0.500  0.333  0.333- 502 1.55 550 1.55 542 1.55 406 1.55
 123  0.500  0.333  0.833- 407 1.54 551 1.55 543 1.55 503 1.57
 124  0.500  0.583  0.333- 504 1.54 552 1.55 544 1.55 408 1.57
 125  0.500  0.583  0.832- 505 1.54 545 1.55 409 1.55 553 1.56
 126  0.500  0.833  0.334- 554 1.55 410 1.55 546 1.55 506 1.55
 127  0.500  0.833  0.833- 507 1.55 411 1.55 555 1.55 547 1.55
 128  0.667  0.083  0.333- 556 1.55 412 1.55 548 1.55 508 1.55
 129  0.667  0.083  0.833- 509 1.55 413 1.55 557 1.55 549 1.55
 130  0.667  0.333  0.333- 558 1.54 550 1.55 510 1.55 414 1.55
 131  0.667  0.333  0.833- 415 1.54 559 1.55 551 1.55 511 1.55
 132  0.667  0.583  0.334- 512 1.55 560 1.55 552 1.55 416 1.55
 133  0.667  0.584  0.835- 417 1.54 553 1.54 513 1.55 561 1.55
 134  0.667  0.833  0.333- 418 1.55 562 1.55 554 1.55 514 1.55
 135  0.667  0.833  0.833- 515 1.55 419 1.55 555 1.55 563 1.55
 136  0.833  0.083  0.333- 564 1.55 420 1.55 516 1.55 556 1.55
 137  0.833  0.083  0.833- 421 1.55 565 1.55 557 1.55 517 1.55
 138  0.833  0.333  0.333- 518 1.55 422 1.55 558 1.55 566 1.55
 139  0.833  0.333  0.833- 423 1.55 567 1.55 519 1.55 559 1.55
 140  0.833  0.583  0.333- 424 1.55 568 1.55 520 1.55 560 1.55
 141  0.834  0.583  0.834- 561 1.54 569 1.55 425 1.55 521 1.55
 142  0.833  0.833  0.333- 426 1.55 570 1.55 522 1.55 562 1.55
 143  0.833  0.833  0.833- 563 1.54 523 1.55 427 1.55 571 1.55
 144  0.083  0.208  0.333- 428 1.55 476 1.55 526 1.55 484 1.55
 145  0.083  0.208  0.833- 429 1.55 477 1.55 527 1.55 485 1.55
 146  0.083  0.458  0.333- 430 1.55 478 1.55 528 1.55 486 1.55
 147  0.083  0.458  0.833- 431 1.55 479 1.55 529 1.55 487 1.55
 148  0.083  0.708  0.333- 432 1.55 488 1.55 530 1.55 480 1.55
 149  0.083  0.708  0.833- 489 1.55 481 1.55 433 1.55 531 1.55
 150  0.083  0.958  0.333- 434 1.55 524 1.55 482 1.55 490 1.55
 151  0.083  0.958  0.833- 491 1.55 525 1.55 483 1.55 435 1.55
 152  0.250  0.208  0.333- 484 1.55 436 1.55 534 1.55 492 1.55
 153  0.250  0.208  0.833- 437 1.55 485 1.55 493 1.55 535 1.55
 154  0.250  0.458  0.333- 486 1.55 536 1.55 494 1.55 438 1.55
 155  0.250  0.458  0.833- 439 1.55 487 1.55 537 1.55 495 1.55
 156  0.250  0.708  0.333- 440 1.55 488 1.55 538 1.55 496 1.55
 157  0.250  0.709  0.834- 497 1.54 441 1.55 539 1.55 489 1.55
 158  0.250  0.958  0.333- 442 1.55 490 1.55 532 1.55 498 1.55
 159  0.250  0.958  0.833- 533 1.55 443 1.55 491 1.55 499 1.55
 160  0.417  0.208  0.333- 492 1.55 444 1.55 542 1.55 500 1.55
 161  0.417  0.208  0.833- 445 1.55 501 1.55 493 1.55 543 1.55
 162  0.416  0.458  0.332- 494 1.54 544 1.55 502 1.55 446 1.55
 163  0.417  0.459  0.832- 495 1.54 545 1.55 447 1.55 503 1.55
 164  0.417  0.708  0.334- 496 1.55 504 1.55 546 1.55 448 1.55
 165  0.417  0.708  0.833- 449 1.54 547 1.54 497 1.55 505 1.55
 166  0.417  0.958  0.333- 450 1.55 498 1.55 506 1.55 540 1.55
 167  0.417  0.958  0.833- 541 1.55 451 1.55 499 1.55 507 1.55
 168  0.583  0.208  0.333- 508 1.55 452 1.55 500 1.55 550 1.55
 169  0.583  0.208  0.833- 453 1.55 509 1.55 501 1.55 551 1.55
 170  0.584  0.458  0.332- 510 1.54 552 1.55 502 1.55 454 1.55
 171  0.583  0.459  0.831- 511 1.54 503 1.55 553 1.56 455 1.56
 172  0.583  0.708  0.334- 512 1.55 504 1.55 554 1.55 456 1.55
 173  0.583  0.709  0.834- 457 1.54 555 1.55 513 1.55 505 1.55
 174  0.583  0.958  0.333- 514 1.55 458 1.55 506 1.55 548 1.55
 175  0.583  0.958  0.833- 549 1.55 515 1.55 459 1.55 507 1.55
 176  0.750  0.208  0.333- 516 1.55 460 1.55 508 1.55 558 1.55
 177  0.750  0.208  0.833- 461 1.55 517 1.55 509 1.55 559 1.55
 178  0.750  0.458  0.334- 560 1.55 510 1.55 518 1.55 462 1.55
 179  0.750  0.458  0.833- 463 1.55 519 1.55 561 1.55 511 1.55
 180  0.750  0.708  0.334- 464 1.55 520 1.55 562 1.55 512 1.55
 181  0.750  0.709  0.834- 513 1.54 465 1.55 563 1.55 521 1.55
 182  0.750  0.958  0.333- 466 1.55 522 1.55 514 1.55 556 1.55
 183  0.750  0.958  0.833- 557 1.55 467 1.55 515 1.55 523 1.55
 184  0.917  0.208  0.333- 468 1.55 516 1.55 566 1.55 476 1.55
 185  0.917  0.208  0.833- 469 1.55 517 1.55 477 1.55 567 1.55
 186  0.917  0.458  0.333- 470 1.55 518 1.55 568 1.55 478 1.55
 187  0.917  0.458  0.833- 471 1.55 479 1.55 569 1.55 519 1.55
 188  0.917  0.708  0.333- 472 1.55 520 1.55 480 1.55 570 1.55
 189  0.917  0.708  0.834- 521 1.54 481 1.55 473 1.55 571 1.55
 190  0.917  0.958  0.333- 474 1.55 522 1.55 564 1.55 482 1.55
 191  0.917  0.958  0.833- 523 1.55 565 1.55 475 1.55 483 1.55
 192  1.000  0.167  0.167- 476 1.55 372 1.55 287 1.55 332 1.55
 193  1.000  0.167  0.667- 373 1.55 477 1.55 288 1.55 333 1.55
 194  1.000  0.417  0.167- 374 1.55 478 1.55 289 1.55 334 1.55
 195  1.000  0.417  0.667- 479 1.55 375 1.55 290 1.55 335 1.55
 196  1.000  0.667  0.167- 376 1.55 480 1.55 336 1.55 291 1.55
 197  0.000  0.667  0.667- 377 1.54 337 1.54 292 1.55 481 1.55
 198  1.000  0.917  0.167- 482 1.55 378 1.55 338 1.55 285 1.55
 199  1.000  0.917  0.667- 379 1.55 339 1.55 286 1.55 483 1.55
 200  0.167  0.167  0.167- 484 1.55 332 1.55 295 1.55 340 1.55
 201  0.167  0.167  0.667- 333 1.55 485 1.55 296 1.55 341 1.55
 202  0.167  0.417  0.167- 334 1.55 297 1.55 486 1.55 342 1.55
 203  0.167  0.417  0.667- 487 1.55 335 1.55 298 1.55 343 1.55
 204  0.167  0.667  0.167- 488 1.55 344 1.55 336 1.55 299 1.55
 205  0.167  0.667  0.667- 345 1.54 300 1.55 337 1.55 489 1.55
 206  0.167  0.917  0.167- 490 1.55 338 1.55 346 1.55 293 1.55
 207  0.167  0.917  0.667- 294 1.54 347 1.55 339 1.55 491 1.55
 208  0.333  0.167  0.167- 492 1.55 340 1.55 348 1.55 303 1.55
 209  0.333  0.166  0.667- 304 1.54 341 1.54 493 1.55 349 1.55
 210  0.333  0.417  0.166- 494 1.54 342 1.54 305 1.55 350 1.55
 211  0.334  0.417  0.666- 495 1.54 343 1.55 306 1.55 351 1.56
 212  0.333  0.667  0.167- 307 1.55 344 1.55 496 1.55 352 1.55
 213  0.333  0.668  0.667- 308 1.54 353 1.54 497 1.55 345 1.55
 214  0.333  0.917  0.167- 498 1.55 354 1.55 346 1.55 301 1.55
 215  0.333  0.917  0.667- 302 1.55 499 1.55 347 1.55 355 1.55
 216  0.500  0.167  0.167- 500 1.55 356 1.55 348 1.55 311 1.55
 217  0.500  0.167  0.667- 312 1.55 349 1.55 501 1.55 357 1.55
 218  0.500  0.417  0.166- 502 1.55 358 1.55 350 1.55 313 1.55
 219  0.500  0.667  0.167- 314 1.55 504 1.55 360 1.55 352 1.55
 220  0.500  0.666  0.667- 505 1.54 353 1.55 315 1.55 361 1.56
 221  0.500  0.917  0.167- 362 1.55 506 1.55 354 1.55 309 1.55
 222  0.500  0.917  0.667- 310 1.55 363 1.55 355 1.55 507 1.55
 223  0.667  0.167  0.167- 508 1.55 364 1.55 356 1.55 318 1.55
 224  0.667  0.166  0.667- 319 1.54 365 1.54 509 1.55 357 1.55
 225  0.667  0.417  0.166- 510 1.54 366 1.54 320 1.55 358 1.55
 226  0.665  0.417  0.667- 511 1.54 359 1.55 367 1.56 321 1.56
 227  0.667  0.667  0.167- 368 1.55 322 1.55 512 1.55 360 1.55
 228  0.667  0.668  0.667- 323 1.54 361 1.54 513 1.55 369 1.55
 229  0.667  0.917  0.167- 514 1.55 370 1.55 362 1.55 316 1.55
 230  0.667  0.917  0.667- 317 1.55 371 1.55 515 1.55 363 1.55
 231  0.833  0.167  0.167- 516 1.55 372 1.55 364 1.55 326 1.55
 232  0.833  0.167  0.667- 517 1.55 373 1.55 365 1.55 327 1.55
 233  0.833  0.417  0.167- 328 1.55 366 1.55 374 1.55 518 1.55
 234  0.833  0.417  0.667- 519 1.55 329 1.55 375 1.55 367 1.55
 235  0.833  0.667  0.167- 520 1.55 368 1.55 376 1.55 330 1.55
 236  0.834  0.667  0.667- 369 1.54 377 1.55 331 1.55 521 1.55
 237  0.833  0.917  0.167- 522 1.55 370 1.55 378 1.55 324 1.55
 238  0.833  0.917  0.667- 325 1.54 371 1.55 379 1.55 523 1.55
 239  0.083  0.042  0.167- 524 1.55 285 1.55 332 1.55 293 1.55
 240  0.083  0.042  0.667- 333 1.55 286 1.55 294 1.55 525 1.55
 241  0.083  0.292  0.167- 526 1.55 287 1.55 334 1.55 295 1.55
 242  0.083  0.292  0.667- 527 1.55 288 1.55 335 1.55 296 1.55
 243  0.083  0.542  0.167- 528 1.55 297 1.55 289 1.55 336 1.55
 244  0.083  0.542  0.667- 298 1.54 290 1.54 529 1.55 337 1.55
 245  0.083  0.792  0.167- 299 1.55 530 1.55 291 1.55 338 1.55
 246  0.083  0.792  0.667- 300 1.55 292 1.55 339 1.55 531 1.55
 247  0.250  0.042  0.167- 532 1.55 293 1.55 340 1.55 301 1.55
 248  0.250  0.042  0.667- 341 1.54 294 1.55 533 1.55 302 1.55
 249  0.250  0.292  0.166- 295 1.55 534 1.55 303 1.55 342 1.55
 250  0.250  0.292  0.667- 296 1.55 535 1.55 304 1.55 343 1.55
 251  0.250  0.542  0.167- 536 1.55 297 1.55 344 1.55 305 1.55
 252  0.249  0.542  0.667- 306 1.54 298 1.54 537 1.55 345 1.55
 253  0.250  0.792  0.167- 538 1.55 299 1.55 346 1.55 307 1.55
 254  0.250  0.792  0.667- 308 1.54 347 1.54 539 1.55 300 1.55
 255  0.417  0.042  0.167- 540 1.55 301 1.55 309 1.55 348 1.55
 256  0.417  0.042  0.667- 349 1.55 302 1.55 541 1.55 310 1.55
 257  0.417  0.292  0.166- 303 1.55 542 1.55 311 1.55 350 1.55
 258  0.416  0.291  0.666- 304 1.54 543 1.55 312 1.55 351 1.55
 259  0.417  0.542  0.167- 352 1.55 305 1.55 313 1.55 544 1.55
 260  0.417  0.792  0.167- 307 1.55 314 1.55 354 1.55 546 1.55
 261  0.417  0.791  0.667- 547 1.55 355 1.55 308 1.55 315 1.55
 262  0.583  0.042  0.167- 548 1.55 316 1.55 309 1.55 356 1.55
 263  0.583  0.042  0.667- 357 1.55 317 1.55 549 1.55 310 1.55
 264  0.583  0.292  0.166- 318 1.55 311 1.55 550 1.55 358 1.55
 265  0.584  0.291  0.666- 319 1.54 551 1.55 312 1.55 359 1.55
 266  0.583  0.542  0.167- 360 1.55 320 1.55 313 1.55 552 1.55
 267  0.583  0.792  0.167- 322 1.55 314 1.55 362 1.55 554 1.55
 268  0.583  0.792  0.667- 363 1.55 323 1.55 555 1.55 315 1.55
 269  0.750  0.042  0.167- 556 1.55 324 1.55 316 1.55 364 1.55
 270  0.750  0.042  0.667- 365 1.54 325 1.55 557 1.55 317 1.55
 271  0.750  0.292  0.166- 326 1.55 318 1.55 558 1.55 366 1.55
 272  0.750  0.292  0.667- 559 1.55 319 1.55 327 1.55 367 1.55
 273  0.750  0.542  0.167- 328 1.55 368 1.55 560 1.55 320 1.55
 274  0.751  0.542  0.667- 329 1.54 321 1.54 561 1.55 369 1.55
 275  0.750  0.792  0.167- 562 1.55 322 1.55 330 1.55 370 1.55
 276  0.750  0.792  0.667- 323 1.54 371 1.54 331 1.55 563 1.55
 277  0.917  0.042  0.167- 564 1.55 324 1.55 372 1.55 285 1.55
 278  0.917  0.042  0.667- 325 1.55 565 1.55 373 1.55 286 1.55
 279  0.917  0.292  0.167- 326 1.55 374 1.55 566 1.55 287 1.55
 280  0.917  0.292  0.667- 327 1.55 567 1.55 375 1.55 288 1.55
 281  0.917  0.542  0.167- 568 1.55 328 1.55 376 1.55 289 1.55
 282  0.917  0.542  0.667- 329 1.54 290 1.54 569 1.55 377 1.55
 283  0.917  0.792  0.167- 330 1.55 570 1.55 291 1.55 378 1.55
 284  0.917  0.792  0.667- 331 1.54 379 1.55 292 1.55 571 1.55
 285  1.000  0.000  0.125-   1 1.55 239 1.55 277 1.55 198 1.55
 286  1.000  0.000  0.625- 199 1.55 240 1.55   2 1.55 278 1.55
 287  1.000  0.250  0.125-   3 1.55 241 1.55 192 1.55 279 1.55
 288  1.000  0.250  0.625-   4 1.55 242 1.55 193 1.55 280 1.55
 289  1.000  0.500  0.125-   5 1.55 194 1.55 243 1.55 281 1.55
 290  1.000  0.500  0.625- 244 1.54 282 1.54   6 1.55 195 1.55
 291  1.000  0.750  0.125-   7 1.55 245 1.55 283 1.55 196 1.55
 292  0.000  0.750  0.625- 246 1.55 284 1.55   8 1.55 197 1.55
 293  0.167  0.000  0.125-   9 1.55 247 1.55 239 1.55 206 1.55
 294  0.167  1.000  0.625- 207 1.54 248 1.55 240 1.55  10 1.55
 295  0.167  0.250  0.125- 249 1.55  11 1.55 241 1.55 200 1.55
 296  0.167  0.250  0.625- 250 1.55  12 1.55 242 1.55 201 1.55
 297  0.167  0.500  0.125-  13 1.55 243 1.55 202 1.55 251 1.55
 298  0.166  0.500  0.625- 252 1.54 244 1.54  14 1.55 203 1.55
 299  0.167  0.750  0.125-  15 1.55 245 1.55 253 1.55 204 1.55
 300  0.167  0.750  0.625- 246 1.55  16 1.55 205 1.55 254 1.55
 301  0.333  1.000  0.125-  17 1.55 255 1.55 247 1.55 214 1.55
 302  0.333  1.000  0.625- 215 1.55 256 1.55  18 1.55 248 1.55
 303  0.333  0.250  0.125-  19 1.55 257 1.55 249 1.55 208 1.55
 304  0.333  0.249  0.625- 258 1.54 209 1.54  20 1.55 250 1.55
 305  0.333  0.500  0.125-  21 1.55 210 1.55 259 1.55 251 1.55
 306  0.332  0.501  0.626- 572 1.52 252 1.54  22 1.55 211 1.55
 307  0.333  0.750  0.125-  23 1.55 260 1.55 212 1.55 253 1.55
 308  0.333  0.750  0.625- 213 1.54 254 1.54  24 1.55 261 1.55
 309  0.500  1.000  0.125-  25 1.55 262 1.55 255 1.55 221 1.55
 310  0.500  1.000  0.625- 222 1.55  26 1.55 256 1.55 263 1.55
 311  0.500  0.250  0.125-  27 1.54 264 1.55 257 1.55 216 1.55
 312  0.500  0.250  0.625- 217 1.55  28 1.55 258 1.55 265 1.55
 313  0.500  0.500  0.125- 218 1.55 266 1.55 259 1.55  29 1.55
 314  0.500  0.750  0.125- 219 1.55  30 1.55 267 1.55 260 1.55
 315  0.500  0.749  0.625-  31 1.54 268 1.55 261 1.55 220 1.55
 316  0.667  1.000  0.125-  32 1.55 262 1.55 269 1.55 229 1.55
 317  0.667  1.000  0.625- 230 1.55 263 1.55  33 1.55 270 1.55
 318  0.667  0.250  0.125-  34 1.55 264 1.55 271 1.55 223 1.55
 319  0.667  0.250  0.625- 265 1.54 224 1.54  35 1.55 272 1.55
 320  0.667  0.500  0.125-  36 1.55 225 1.55 266 1.55 273 1.55
 321  0.666  0.502  0.627- 576 1.48 274 1.54 226 1.56  37 1.56
 322  0.667  0.750  0.125-  38 1.55 267 1.55 275 1.55 227 1.55
 323  0.667  0.750  0.625- 228 1.54 276 1.54  39 1.55 268 1.55
 324  0.833  0.000  0.125-  40 1.55 269 1.55 277 1.55 237 1.55
 325  0.833  0.000  0.625- 238 1.54 270 1.55 278 1.55  41 1.55
 326  0.833  0.250  0.125- 271 1.55  42 1.55 279 1.55 231 1.55
 327  0.833  0.250  0.625-  43 1.55 280 1.55 272 1.55 232 1.55
 328  0.833  0.500  0.125-  44 1.55 233 1.55 281 1.55 273 1.55
 329  0.834  0.500  0.625- 274 1.54 282 1.54  45 1.55 234 1.55
 330  0.833  0.750  0.125-  46 1.55 283 1.55 275 1.55 235 1.55
 331  0.833  0.750  0.625- 284 1.54 236 1.55  47 1.55 276 1.55
 332  0.083  0.125  0.125-  48 1.55 200 1.55 239 1.55 192 1.55
 333  0.083  0.125  0.625- 201 1.55 240 1.55  49 1.55 193 1.55
 334  0.083  0.375  0.125- 202 1.55  50 1.55 241 1.55 194 1.55
 335  0.083  0.375  0.625- 203 1.55  51 1.55 242 1.55 195 1.55
 336  0.083  0.625  0.125-  52 1.55 196 1.55 243 1.55 204 1.55
 337  0.083  0.625  0.625- 197 1.54 205 1.55  53 1.55 244 1.55
 338  0.083  0.875  0.125-  54 1.55 198 1.55 206 1.55 245 1.55
 339  0.083  0.875  0.625- 199 1.55 246 1.55 207 1.55  55 1.55
 340  0.250  0.125  0.125-  56 1.55 208 1.55 247 1.55 200 1.55
 341  0.250  0.125  0.625- 209 1.54 248 1.54  57 1.55 201 1.55
 342  0.250  0.375  0.125- 210 1.54  58 1.54 249 1.55 202 1.55
 343  0.250  0.375  0.625-  59 1.55 250 1.55 211 1.55 203 1.55
 344  0.250  0.625  0.125-  60 1.54 204 1.55 251 1.55 212 1.55
 345  0.250  0.625  0.625- 205 1.54  61 1.55 252 1.55 213 1.55
 346  0.250  0.875  0.125-  62 1.55 214 1.55 206 1.55 253 1.55
 347  0.250  0.875  0.625- 254 1.54 207 1.55  63 1.55 215 1.55
 348  0.417  0.125  0.125-  64 1.55 216 1.55 255 1.55 208 1.55
 349  0.417  0.125  0.625- 256 1.55  65 1.55 217 1.55 209 1.55
 350  0.417  0.375  0.124-  66 1.55 218 1.55 257 1.55 210 1.55
 351  0.417  0.375  0.625- 575 1.49  67 1.55 258 1.55 211 1.56
 352  0.417  0.625  0.125- 259 1.55 219 1.55  68 1.55 212 1.55
 353  0.415  0.626  0.626- 572 1.52 213 1.54  69 1.55 220 1.55
 354  0.417  0.875  0.125-  70 1.55 221 1.55 214 1.55 260 1.55
 355  0.417  0.875  0.625-  71 1.55 222 1.55 261 1.55 215 1.55
 356  0.583  0.125  0.125-  72 1.55 216 1.55 223 1.55 262 1.55
 357  0.583  0.125  0.625- 263 1.55  73 1.55 217 1.55 224 1.55
 358  0.583  0.375  0.124- 218 1.55 225 1.55  74 1.55 264 1.55
 359  0.582  0.375  0.625- 575 1.49  75 1.55 226 1.55 265 1.55
 360  0.583  0.625  0.125-  76 1.55 219 1.55 266 1.55 227 1.55
 361  0.585  0.624  0.627- 576 1.48 228 1.54  77 1.56 220 1.56
 362  0.583  0.875  0.125- 221 1.55 229 1.55  78 1.55 267 1.55
 363  0.583  0.875  0.625- 268 1.55 222 1.55  79 1.55 230 1.55
 364  0.750  0.125  0.125-  80 1.55 223 1.55 231 1.55 269 1.55
 365  0.750  0.125  0.625- 224 1.54 270 1.54  81 1.55 232 1.55
 366  0.750  0.375  0.125- 225 1.54  82 1.54 233 1.55 271 1.55
 367  0.749  0.376  0.625-  83 1.54 234 1.55 272 1.55 226 1.56
 368  0.750  0.625  0.125-  84 1.54 235 1.55 273 1.55 227 1.55
 369  0.750  0.625  0.625- 236 1.54  85 1.55 274 1.55 228 1.55
 370  0.750  0.875  0.125-  86 1.55 229 1.55 237 1.55 275 1.55
 371  0.750  0.875  0.625- 276 1.54 238 1.55  87 1.55 230 1.55
 372  0.917  0.125  0.125-  88 1.55 231 1.55 192 1.55 277 1.55
 373  0.917  0.125  0.625- 193 1.55  89 1.55 278 1.55 232 1.55
 374  0.917  0.375  0.125- 194 1.55 279 1.55  90 1.55 233 1.55
 375  0.917  0.375  0.625-  91 1.55 280 1.55 195 1.55 234 1.55
 376  0.917  0.625  0.125-  92 1.55 196 1.55 235 1.55 281 1.55
 377  0.917  0.625  0.625- 197 1.54 236 1.55  93 1.55 282 1.55
 378  0.917  0.875  0.125-  94 1.55 198 1.55 237 1.55 283 1.55
 379  0.917  0.875  0.625- 199 1.55 284 1.55 238 1.55  95 1.55
 380  1.000  0.083  0.458-  49 1.55  96 1.55   2 1.55  89 1.55
 381  1.000  0.083  0.958-  48 1.55  97 1.55  88 1.55   1 1.55
 382  1.000  0.333  0.458-  98 1.55  51 1.55   4 1.55  91 1.55
 383  1.000  0.333  0.958-  50 1.55  99 1.55  90 1.55   3 1.55
 384  1.000  0.583  0.458- 100 1.55  53 1.55  93 1.55   6 1.55
 385  1.000  0.583  0.959-  52 1.55  92 1.55 101 1.55   5 1.55
 386  1.000  0.833  0.458- 102 1.55  55 1.55  95 1.55   8 1.55
 387  0.000  0.833  0.958-  54 1.55  94 1.55 103 1.55   7 1.55
 388  0.167  0.083  0.458-  57 1.55  10 1.55 104 1.55  49 1.55
 389  0.167  0.083  0.958- 105 1.55   9 1.55  56 1.55  48 1.55
 390  0.167  0.333  0.458- 106 1.55  12 1.55  59 1.55  51 1.55
 391  0.167  0.333  0.958-  58 1.55 107 1.55  11 1.55  50 1.55
 392  0.167  0.583  0.458- 108 1.55  14 1.55  61 1.55  53 1.55
 393  0.167  0.583  0.959-  52 1.55 109 1.55  13 1.55  60 1.55
 394  0.167  0.833  0.458- 110 1.55  16 1.55  63 1.55  55 1.55
 395  0.167  0.833  0.958-  54 1.55 111 1.55  15 1.55  62 1.55
 396  0.333  0.083  0.458- 112 1.55  65 1.55  18 1.55  57 1.55
 397  0.333  0.083  0.958- 113 1.55  17 1.55  64 1.55  56 1.55
 398  0.333  0.333  0.458-  67 1.54 114 1.55  59 1.55  20 1.55
 399  0.333  0.333  0.958- 115 1.55  66 1.55  58 1.55  19 1.55
 400  0.333  0.583  0.459-  22 1.54  69 1.54 116 1.55  61 1.55
 401  0.333  0.584  0.959- 117 1.54  60 1.54  21 1.55  68 1.55
 402  0.333  0.833  0.458- 118 1.55  24 1.55  71 1.55  63 1.55
 403  0.333  0.833  0.958- 119 1.55  23 1.55  62 1.55  70 1.55
 404  0.500  0.083  0.458- 120 1.55  26 1.55  73 1.55  65 1.55
 405  0.500  0.083  0.958- 121 1.55  64 1.55  72 1.55  25 1.55
 406  0.500  0.333  0.458-  67 1.54  75 1.54  28 1.55 122 1.55
 407  0.500  0.333  0.958- 123 1.54  74 1.55  66 1.55  27 1.55
 408  0.500  0.581  0.460- 574 1.51  77 1.55  69 1.55 124 1.57
 409  0.500  0.583  0.958-  29 1.55  76 1.55  68 1.55 125 1.55
 410  0.500  0.833  0.459- 126 1.55  79 1.55  71 1.55  31 1.55
 411  0.500  0.833  0.958-  30 1.55 127 1.55  78 1.55  70 1.55
 412  0.667  0.083  0.458- 128 1.55  73 1.55  33 1.55  81 1.55
 413  0.667  0.083  0.958- 129 1.55  32 1.55  72 1.55  80 1.55
 414  0.666  0.333  0.458-  75 1.54  83 1.55 130 1.55  35 1.55
 415  0.667  0.333  0.958- 131 1.54  74 1.55  82 1.55  34 1.55
 416  0.666  0.583  0.459-  37 1.54  77 1.54 132 1.55  85 1.55
 417  0.667  0.584  0.959- 133 1.54  84 1.54  36 1.55  76 1.55
 418  0.667  0.833  0.458- 134 1.55  79 1.55  39 1.55  87 1.55
 419  0.667  0.833  0.958-  86 1.55 135 1.55  38 1.55  78 1.55
 420  0.833  0.083  0.458-  81 1.55 136 1.55  41 1.55  89 1.55
 421  0.833  0.083  0.958-  80 1.55 137 1.55  40 1.55  88 1.55
 422  0.833  0.333  0.458- 138 1.55  91 1.55  43 1.55  83 1.55
 423  0.833  0.333  0.958-  82 1.55 139 1.55  90 1.55  42 1.55
 424  0.833  0.583  0.458-  85 1.55  45 1.55 140 1.55  93 1.55
 425  0.833  0.583  0.959-  92 1.54 141 1.55  44 1.55  84 1.55
 426  0.833  0.833  0.458- 142 1.55  87 1.55  47 1.55  95 1.55
 427  0.833  0.833  0.958-  94 1.55 143 1.55  86 1.55  46 1.55
 428  0.083  0.208  0.458-  12 1.55 144 1.55  49 1.55   4 1.55
 429  0.083  0.208  0.958-  11 1.55 145 1.55  48 1.55   3 1.55
 430  0.083  0.458  0.458-  14 1.55 146 1.55  51 1.55   6 1.55
 431  0.083  0.458  0.958- 147 1.55  13 1.55   5 1.55  50 1.55
 432  0.083  0.708  0.458- 148 1.55  16 1.55  53 1.55   8 1.55
 433  0.083  0.708  0.958-   7 1.55  15 1.55 149 1.55  52 1.55
 434  0.083  0.958  0.458-  10 1.55 150 1.55  55 1.55   2 1.55
 435  0.083  0.958  0.958-   9 1.55 151 1.55  54 1.55   1 1.55
 436  0.250  0.208  0.458-  20 1.54 152 1.55  57 1.55  12 1.55
 437  0.250  0.208  0.958- 153 1.55  19 1.55  56 1.55  11 1.55
 438  0.250  0.458  0.458-  59 1.55 154 1.55  22 1.55  14 1.55
 439  0.250  0.458  0.958- 155 1.55  58 1.55  21 1.55  13 1.55
 440  0.250  0.708  0.458-  61 1.55 156 1.55  24 1.55  16 1.55
 441  0.250  0.708  0.959-  15 1.55 157 1.55  23 1.55  60 1.55
 442  0.250  0.958  0.458- 158 1.55  63 1.55  18 1.55  10 1.55
 443  0.250  0.958  0.958- 159 1.55  62 1.55   9 1.55  17 1.55
 444  0.417  0.208  0.458- 160 1.55  28 1.55  65 1.55  20 1.55
 445  0.417  0.208  0.958- 161 1.55  19 1.55  64 1.55  27 1.55
 446  0.417  0.458  0.458- 574 1.49  67 1.55 162 1.55  22 1.56
 447  0.417  0.458  0.957-  29 1.55  66 1.55 163 1.55  21 1.55
 448  0.417  0.708  0.459-  31 1.55 164 1.55  24 1.55  69 1.55
 449  0.417  0.708  0.958- 165 1.54  68 1.55  30 1.55  23 1.55
 450  0.417  0.958  0.458- 166 1.55  18 1.55  26 1.55  71 1.55
 451  0.417  0.958  0.958-  17 1.55  70 1.55 167 1.55  25 1.55
 452  0.583  0.208  0.458-  28 1.55 168 1.55  35 1.55  73 1.55
 453  0.583  0.208  0.958- 169 1.55  34 1.55  72 1.55  27 1.55
 454  0.582  0.458  0.458- 574 1.49  75 1.55  37 1.55 170 1.55
 455  0.583  0.459  0.957-  29 1.55  36 1.55  74 1.55 171 1.56
 456  0.583  0.708  0.459-  31 1.54  39 1.55 172 1.55  77 1.56
 457  0.583  0.708  0.958- 173 1.54  76 1.55  38 1.55  30 1.55
 458  0.583  0.958  0.458- 174 1.55  33 1.55  26 1.55  79 1.55
 459  0.583  0.958  0.958-  32 1.55  78 1.55  25 1.55 175 1.55
 460  0.750  0.208  0.458-  35 1.54 176 1.55  81 1.55  43 1.55
 461  0.750  0.208  0.958- 177 1.55  34 1.55  42 1.55  80 1.55
 462  0.749  0.459  0.459-  83 1.54  45 1.55 178 1.55  37 1.56
 463  0.750  0.458  0.958- 179 1.55  36 1.55  82 1.55  44 1.55
 464  0.750  0.708  0.459-  85 1.55  39 1.55 180 1.55  47 1.55
 465  0.750  0.709  0.959-  46 1.54 181 1.55  38 1.55  84 1.55
 466  0.750  0.958  0.458- 182 1.55  33 1.55  87 1.55  41 1.55
 467  0.750  0.958  0.958- 183 1.55  40 1.55  32 1.55  86 1.55
 468  0.917  0.208  0.458- 184 1.55   4 1.55  89 1.55  43 1.55
 469  0.917  0.208  0.958-  42 1.55 185 1.55  88 1.55   3 1.55
 470  0.917  0.458  0.458- 186 1.55  91 1.55  45 1.55   6 1.55
 471  0.917  0.458  0.958-  44 1.55 187 1.55  90 1.55   5 1.55
 472  0.917  0.708  0.458- 188 1.55  47 1.55  93 1.55   8 1.55
 473  0.917  0.708  0.959-   7 1.55 189 1.55  46 1.55  92 1.55
 474  0.917  0.958  0.458-  41 1.55 190 1.55  95 1.55   2 1.55
 475  0.917  0.958  0.958-  40 1.55   1 1.55 191 1.55  94 1.55
 476  1.000  0.167  0.292- 192 1.55 144 1.55  96 1.55 184 1.55
 477  1.000  0.167  0.792- 193 1.55  97 1.55 145 1.55 185 1.55
 478  1.000  0.417  0.292- 194 1.55  98 1.55 146 1.55 186 1.55
 479  1.000  0.417  0.792- 187 1.55 195 1.55 147 1.55  99 1.55
 480  1.000  0.667  0.292- 196 1.55 188 1.55 100 1.55 148 1.55
 481  0.000  0.667  0.792- 149 1.55 189 1.55 197 1.55 101 1.55
 482  1.000  0.917  0.292- 198 1.55 102 1.55 150 1.55 190 1.55
 483  0.000  0.917  0.792- 151 1.55 103 1.55 199 1.55 191 1.55
 484  0.167  0.167  0.292- 152 1.55 200 1.55 104 1.55 144 1.55
 485  0.167  0.167  0.792- 201 1.55 105 1.55 153 1.55 145 1.55
 486  0.167  0.417  0.292- 154 1.55 106 1.55 146 1.55 202 1.55
 487  0.167  0.417  0.792- 203 1.55 155 1.55 107 1.55 147 1.55
 488  0.167  0.667  0.292- 204 1.55 148 1.55 156 1.55 108 1.55
 489  0.167  0.667  0.792- 149 1.55 157 1.55 205 1.55 109 1.55
 490  0.167  0.917  0.292- 206 1.55 158 1.55 110 1.55 150 1.55
 491  0.167  0.917  0.792- 151 1.55 111 1.55 159 1.55 207 1.55
 492  0.333  0.167  0.292- 160 1.55 208 1.55 112 1.55 152 1.55
 493  0.333  0.167  0.792- 113 1.55 209 1.55 153 1.55 161 1.55
 494  0.333  0.416  0.291- 162 1.54 210 1.54 114 1.55 154 1.55
 495  0.333  0.417  0.791- 211 1.54 163 1.54 115 1.55 155 1.55
 496  0.333  0.667  0.292- 116 1.55 164 1.55 212 1.55 156 1.55
 497  0.333  0.667  0.792- 157 1.54 165 1.55 213 1.55 117 1.55
 498  0.333  0.917  0.292- 214 1.55 166 1.55 118 1.55 158 1.55
 499  0.333  0.917  0.792- 119 1.55 215 1.55 167 1.55 159 1.55
 500  0.500  0.167  0.292- 216 1.55 120 1.55 168 1.55 160 1.55
 501  0.500  0.167  0.792- 217 1.55 121 1.55 161 1.55 169 1.55
 502  0.500  0.416  0.291- 122 1.55 218 1.55 162 1.55 170 1.55
 503  0.500  0.417  0.789- 575 1.51 171 1.55 163 1.55 123 1.57
 504  0.500  0.666  0.292- 124 1.54 219 1.55 164 1.55 172 1.55
 505  0.500  0.667  0.792- 220 1.54 125 1.54 165 1.55 173 1.55
 506  0.500  0.917  0.292- 221 1.55 166 1.55 174 1.55 126 1.55
 507  0.500  0.917  0.792- 127 1.55 222 1.55 175 1.55 167 1.55
 508  0.667  0.167  0.292- 168 1.55 223 1.55 176 1.55 128 1.55
 509  0.667  0.167  0.792- 129 1.55 177 1.55 224 1.55 169 1.55
 510  0.667  0.416  0.291- 170 1.54 225 1.54 130 1.55 178 1.55
 511  0.666  0.417  0.791- 226 1.54 171 1.54 131 1.55 179 1.55
 512  0.667  0.666  0.292- 172 1.55 132 1.55 180 1.55 227 1.55
 513  0.667  0.667  0.792- 181 1.54 173 1.55 228 1.55 133 1.55
 514  0.667  0.917  0.292- 229 1.55 174 1.55 182 1.55 134 1.55
 515  0.667  0.917  0.792- 135 1.55 183 1.55 175 1.55 230 1.55
 516  0.833  0.167  0.292- 176 1.55 231 1.55 184 1.55 136 1.55
 517  0.833  0.167  0.792- 232 1.55 177 1.55 185 1.55 137 1.55
 518  0.833  0.417  0.292- 186 1.55 138 1.55 178 1.55 233 1.55
 519  0.833  0.417  0.792- 179 1.55 234 1.55 139 1.55 187 1.55
 520  0.833  0.667  0.292- 235 1.55 188 1.55 180 1.55 140 1.55
 521  0.834  0.667  0.792- 189 1.54 236 1.55 181 1.55 141 1.55
 522  0.833  0.917  0.292- 237 1.55 182 1.55 190 1.55 142 1.55
 523  0.833  0.917  0.792- 191 1.55 143 1.55 183 1.55 238 1.55
 524  0.083  0.042  0.292- 104 1.55 239 1.55 150 1.55  96 1.55
 525  0.083  0.042  0.792- 105 1.55 151 1.55 240 1.55  97 1.55
 526  0.083  0.292  0.292- 106 1.55 241 1.55 144 1.55  98 1.55
 527  0.083  0.292  0.792- 107 1.55 242 1.55 145 1.55  99 1.55
 528  0.083  0.542  0.292- 243 1.55 108 1.55 146 1.55 100 1.55
 529  0.083  0.542  0.792- 101 1.55 109 1.55 147 1.55 244 1.55
 530  0.083  0.792  0.292- 245 1.55 110 1.55 102 1.55 148 1.55
 531  0.083  0.792  0.792- 111 1.55 103 1.55 246 1.55 149 1.55
 532  0.250  0.042  0.292- 247 1.55 112 1.55 158 1.55 104 1.55
 533  0.250  0.042  0.792- 159 1.55 248 1.55 113 1.55 105 1.55
 534  0.250  0.292  0.291- 114 1.54 249 1.55 152 1.55 106 1.55
 535  0.250  0.292  0.791- 250 1.55 115 1.55 107 1.55 153 1.55
 536  0.250  0.542  0.292- 154 1.55 251 1.55 116 1.55 108 1.55
 537  0.250  0.542  0.792- 109 1.54 155 1.55 252 1.55 117 1.55
 538  0.250  0.792  0.292- 253 1.55 118 1.55 156 1.55 110 1.55
 539  0.250  0.792  0.792- 111 1.55 157 1.55 119 1.55 254 1.55
 540  0.417  0.042  0.292- 255 1.55 112 1.55 120 1.55 166 1.55
 541  0.417  0.042  0.792- 167 1.55 256 1.55 113 1.55 121 1.55
 542  0.417  0.292  0.291- 122 1.55 257 1.55 114 1.55 160 1.55
 543  0.417  0.292  0.791- 115 1.55 161 1.55 258 1.55 123 1.55
 544  0.417  0.541  0.292- 116 1.55 259 1.55 162 1.55 124 1.55
 545  0.415  0.543  0.792- 572 1.52 117 1.54 163 1.55 125 1.55
 546  0.417  0.791  0.292- 126 1.55 118 1.55 260 1.55 164 1.55
 547  0.417  0.792  0.792- 165 1.54 261 1.55 127 1.55 119 1.55
 548  0.583  0.042  0.292- 262 1.55 128 1.55 120 1.55 174 1.55
 549  0.583  0.042  0.792- 175 1.55 129 1.55 263 1.55 121 1.55
 550  0.583  0.292  0.291- 122 1.55 130 1.55 264 1.55 168 1.55
 551  0.583  0.292  0.791- 131 1.55 169 1.55 265 1.55 123 1.55
 552  0.583  0.541  0.292- 132 1.55 266 1.55 170 1.55 124 1.55
 553  0.585  0.543  0.790- 576 1.48 133 1.54 171 1.56 125 1.56
 554  0.583  0.791  0.292- 126 1.55 134 1.55 267 1.55 172 1.55
 555  0.583  0.792  0.792- 173 1.55 268 1.55 135 1.55 127 1.55
 556  0.750  0.042  0.292- 269 1.55 128 1.55 136 1.55 182 1.55
 557  0.750  0.042  0.792- 183 1.55 129 1.55 137 1.55 270 1.55
 558  0.750  0.292  0.292- 130 1.54 271 1.55 138 1.55 176 1.55
 559  0.750  0.292  0.791- 272 1.55 131 1.55 139 1.55 177 1.55
 560  0.750  0.542  0.292- 178 1.55 132 1.55 140 1.55 273 1.55
 561  0.750  0.542  0.792- 141 1.54 179 1.55 274 1.55 133 1.55
 562  0.750  0.792  0.292- 275 1.55 134 1.55 180 1.55 142 1.55
 563  0.750  0.792  0.792- 143 1.54 181 1.55 135 1.55 276 1.55
 564  0.917  0.042  0.292- 277 1.55 136 1.55 190 1.55  96 1.55
 565  0.917  0.042  0.792- 191 1.55 137 1.55 278 1.55  97 1.55
 566  0.917  0.292  0.292-  98 1.55 279 1.55 184 1.55 138 1.55
 567  0.917  0.292  0.792- 280 1.55 139 1.55  99 1.55 185 1.55
 568  0.917  0.542  0.292- 281 1.55 186 1.55 140 1.55 100 1.55
 569  0.917  0.542  0.792- 101 1.54 141 1.55 187 1.55 282 1.55
 570  0.917  0.792  0.292- 283 1.55 142 1.55 102 1.55 188 1.55
 571  0.917  0.792  0.792- 103 1.55 143 1.55 189 1.55 284 1.55
 572  0.411  0.545  0.670- 573 1.09 353 1.52 545 1.52 306 1.52
 573  0.469  0.514  0.639- 572 1.09
 574  0.500  0.498  0.492- 454 1.49 446 1.49 408 1.51
 575  0.500  0.410  0.667- 359 1.49 351 1.49 503 1.51
 576  0.591  0.546  0.671- 361 1.48 553 1.48 321 1.48
 
  LATTYP: Found a simple monoclinic cell.
 ALAT       =    12.3703241348
 B/A-ratio  =     1.2248453018
 C/A-ratio  =     1.4141600350
 COS(beta)  =    -0.0000282295
  
  Lattice vectors:
  
 A1 = (   0.0000000000,  -0.0003492082,  12.3703241299)
 A2 = (  15.1517333984,   0.0000000000,   0.0000000000)
 A3 = (   0.0000000000,  17.4936180115,   0.0000000000)


Analysis of symmetry for initial positions (statically):
=====================================================================
 Subroutine PRICEL returns:
 Original cell was already a primitive cell.
 

 Routine SETGRP: Setting up the symmetry group for a 
 simple monoclinic supercell.


 Subroutine GETGRP returns: Found  1 space group operations
 (whereof  1 operations were pure point group operations)
 out of a pool of  4 trial point group operations.


The static configuration has the point symmetry C_1 .


Analysis of symmetry for dynamics (positions and initial velocities):
=====================================================================
 Subroutine PRICEL returns:
 Original cell was already a primitive cell.
 

 Routine SETGRP: Setting up the symmetry group for a 
 simple monoclinic supercell.


 Subroutine GETGRP returns: Found  1 space group operations
 (whereof  1 operations were pure point group operations)
 out of a pool of  4 trial point group operations.


The dynamic configuration has the point symmetry C_1 .


Analysis of structural, dynamic, and magnetic symmetry:
=====================================================================
 Subroutine PRICEL returns:
 Original cell was already a primitive cell.
 

 Routine SETGRP: Setting up the symmetry group for a 
 simple monoclinic supercell.


 Subroutine GETGRP returns: Found  1 space group operations
 (whereof  1 operations were pure point group operations)
 out of a pool of  4 trial point group operations.


The overall configuration has the point symmetry C_1 .


 Subroutine INISYM returns: Found  1 space group operations
 (whereof  1 operations are pure point group operations),
 and found     1 'primitive' translations


----------------------------------------------------------------------------------------

                                     Primitive cell                                     

  volume of cell :    3278.8612

  direct lattice vectors                    reciprocal lattice vectors
    15.151733398  0.000000000  0.000000000     0.065999049  0.000000000  0.000000000
     0.000000000 17.493618012  0.000000000     0.000000000  0.057163704  0.000001614
     0.000000000 -0.000349208 12.370324130     0.000000000  0.000000000  0.080838626

  length of vectors
    15.151733398 17.493618012 12.370324135     0.065999049  0.057163704  0.080838626

  position of ions in fractional coordinates (direct lattice)
     0.999990900  0.000057056  0.000026252
     0.999982387  0.000032626  0.499985837
     0.999971233  0.250012206  0.999976937
     0.999950479  0.250023425  0.499987560
     0.999979009  0.500014978  0.000091396
     0.999921650  0.500002054  0.500052580
     0.000008667  0.750057655  0.000144927
     0.999993744  0.750030029  0.500099523
     0.166646983  0.000032783  0.000028099
     0.166617514  0.999976327  0.499995647
     0.166623955  0.250011789  0.999923589
     0.166640778  0.249990912  0.499972225
     0.166625850  0.500019116  0.000038130
     0.166627548  0.499962059  0.500042923
     0.166601756  0.750082834  0.000200774
     0.166651937  0.750004483  0.500092685
     0.333338381  0.000003202  0.000047140
     0.333334869  0.999902780  0.500009954
     0.333323585  0.250035483  0.999841321
     0.333220326  0.249823653  0.499873057
     0.333331081  0.500048089  0.999818267
     0.333685276  0.499990605  0.500431536
     0.333312289  0.750027252  0.000134502
     0.333371710  0.749879233  0.500169969
     0.500000223  0.999994497  0.000052068
     0.500003979  0.999926282  0.500016835
     0.500000789  0.249982729  0.999962298
     0.499972499  0.249921778  0.499825896
     0.500043522  0.500060443  0.999385271
     0.500011611  0.750042755  0.000090782
     0.500054913  0.749577814  0.500369656
     0.666658789  0.000000651  0.000063092
     0.666671223  0.999930146  0.500002919
     0.666638958  0.250065642  0.999823946
     0.666694523  0.249885599  0.499896852
     0.666677067  0.500124800  0.999769520
     0.665395209  0.500345556  0.500988007
     0.666699420  0.750061326  0.000204763
     0.666670391  0.749864759  0.500295433
     0.833333774  0.000046193  0.000041296
     0.833353675  0.999993719  0.499995088
     0.833317283  0.250028448  0.999912446
     0.833240465  0.250072522  0.499995684
     0.833346298  0.500037630  0.000086242
     0.833190971  0.500034199  0.500192778
     0.833406982  0.750104369  0.000238490
     0.833350104  0.750020073  0.500114816
     0.083305504  0.125032432  0.999978513
     0.083291803  0.125010443  0.499974185
     0.083279975  0.375002934  0.999965759
     0.083298454  0.374999503  0.500004575
     0.083283976  0.625047664  0.000218917
     0.083302346  0.625002145  0.500094082
     0.083302356  0.875069250  0.000099437
     0.083301552  0.875024077  0.500030042
     0.249991958  0.125010794  0.999960053
     0.249928972  0.124894165  0.499950684
     0.249924515  0.374990630  0.999739214
     0.250136484  0.374978170  0.499974623
     0.249814220  0.625130126  0.000491432
     0.250000484  0.624935691  0.500155977
     0.249969432  0.875026440  0.000095281
     0.249980338  0.874960322  0.500045175
     0.416669425  0.125006370  0.999975434
     0.416645261  0.124910497  0.499929337
     0.416690947  0.375037482  0.999541916
     0.416615303  0.374823411  0.499767345
     0.416739127  0.625016312  0.999775109
     0.416719480  0.624336605  0.500876577
     0.416658059  0.875008011  0.000097181
     0.416718724  0.874822971  0.500104655
     0.583332277  0.125004494  0.999977950
     0.583332728  0.124927146  0.499929207
     0.583272318  0.375156126  0.999253885
     0.583213603  0.374887435  0.499826506
     0.583445081  0.625074553  0.000020071
     0.583233051  0.623714295  0.501398224
     0.583331475  0.875002952  0.000138801
     0.583319935  0.874866760  0.500103817
     0.749982737  0.125025245  0.999951391
     0.750024880  0.124934650  0.499954481
     0.750018019  0.375024822  0.999742096
     0.749631245  0.375141803  0.500108958
     0.750233840  0.625161262  0.000502580
     0.749988068  0.624979551  0.500196474
     0.750028744  0.875042750  0.000138706
     0.750011443  0.874963748  0.500066091
     0.916656432  0.125035436  0.999982482
     0.916633355  0.125040359  0.499979868
     0.916618531  0.375015462  0.999989530
     0.916541612  0.375034337  0.500030703
     0.916736517  0.625060841  0.000261412
     0.916652070  0.625021162  0.500124257
     0.916682778  0.875081014  0.000118170
     0.916676912  0.875035021  0.500027405
     0.999974155  0.083347152  0.333320420
     0.999983773  0.083400332  0.833317884
     0.999941966  0.333341043  0.333352626
     0.999952678  0.333358306  0.833298525
     0.999972520  0.583316032  0.333440749
     0.000006705  0.583395581  0.833496176
     0.999989401  0.833341032  0.333401118
     0.000010477  0.833437748  0.833421122
     0.166641062  0.083307617  0.333291646
     0.166650242  0.083363402  0.833310498
     0.166653770  0.333313866  0.333314286
     0.166635760  0.333351459  0.833186080
     0.166675974  0.583278545  0.333438048
     0.166500336  0.583411581  0.833547779
     0.166675974  0.833314372  0.333405078
     0.166590901  0.833454717  0.833436484
     0.333312093  0.083273563  0.333300133
     0.333298570  0.083320494  0.833320044
     0.333205117  0.333203963  0.333078498
     0.333349535  0.333446221  0.833017179
     0.333385912  0.583185889  0.333523649
     0.332793688  0.583775471  0.834605313
     0.333348355  0.833241383  0.333437631
     0.333285850  0.833386653  0.833414390
     0.500002262  0.083267687  0.333333543
     0.499992730  0.083347161  0.833307483
     0.499962638  0.333218353  0.333158192
     0.499993939  0.333426044  0.833349039
     0.499988740  0.583399920  0.333366870
     0.500081660  0.583496496  0.832001713
     0.500000014  0.833148690  0.333533548
     0.500010688  0.833396905  0.833421538
     0.666684616  0.083288756  0.333293511
     0.666685848  0.083328825  0.833323114
     0.666692204  0.333256933  0.333111388
     0.666551890  0.333470489  0.833008736
     0.666517614  0.583187274  0.333596210
     0.667461879  0.583922217  0.834570514
     0.666640921  0.833228914  0.333491582
     0.666744117  0.833439006  0.833471042
     0.833324857  0.083323919  0.333293481
     0.833309999  0.083391850  0.833306575
     0.833196378  0.333370141  0.333395241
     0.833273873  0.333393877  0.833184570
     0.833240488  0.583285564  0.333485368
     0.833596912  0.583483078  0.833637878
     0.833299533  0.833311390  0.333417578
     0.833420432  0.833494864  0.833477182
     0.083316639  0.208339232  0.333324986
     0.083314319  0.208368437  0.833293152
     0.083294368  0.458305957  0.333373257
     0.083308405  0.458359143  0.833361770
     0.083338197  0.708330922  0.333487599
     0.083324866  0.708422418  0.833482315
     0.083329909  0.958340247  0.333354124
     0.083320376  0.958416300  0.833371632
     0.249925404  0.208264673  0.333274054
     0.249981507  0.208362203  0.833263091
     0.250001759  0.458240296  0.333303671
     0.249973017  0.458412149  0.833234631
     0.250034078  0.708266472  0.333488641
     0.249844737  0.708560410  0.833597346
     0.250002913  0.958295073  0.333380314
     0.249961903  0.958358273  0.833398945
     0.416620367  0.208280006  0.333232855
     0.416617838  0.208371077  0.833221005
     0.415947304  0.457777465  0.332444512
     0.416679100  0.458701917  0.832196718
     0.416713859  0.708115020  0.333589538
     0.416578274  0.708457825  0.833487501
     0.416665534  0.958241902  0.333401500
     0.416635968  0.958341103  0.833380641
     0.583360371  0.208297727  0.333219504
     0.583362586  0.208366866  0.833227243
     0.583971561  0.457788463  0.332456154
     0.583253660  0.458829435  0.831197840
     0.583286495  0.707961105  0.333873682
     0.583444367  0.708516574  0.833560638
     0.583343342  0.958250224  0.333397817
     0.583359565  0.958349719  0.833395647
     0.750016486  0.208302024  0.333284099
     0.749947113  0.208406057  0.833243195
     0.749706174  0.458370222  0.333593934
     0.750002641  0.458466411  0.833290140
     0.749940031  0.708264172  0.333540590
     0.750251986  0.708642227  0.833688314
     0.749988886  0.958293117  0.333382121
     0.750030690  0.958392386  0.833416337
     0.916608076  0.208359609  0.333336031
     0.916618945  0.208382830  0.833291560
     0.916563717  0.458319222  0.333430556
     0.916641485  0.458384775  0.833384820
     0.916636418  0.708327987  0.333496088
     0.916744590  0.708458703  0.833526869
     0.916635691  0.958336560  0.333349564
     0.916667771  0.958433924  0.833377684
     0.999977838  0.166685961  0.166645617
     0.999957718  0.166719915  0.666626831
     0.999944951  0.416657294  0.166700943
     0.999914486  0.416691934  0.666681317
     0.999991895  0.666686630  0.166822483
     0.000012796  0.666755760  0.666742986
     0.999992277  0.916696709  0.166723497
     0.999990406  0.916761531  0.666666312
     0.166633596  0.166664050  0.166619355
     0.166611993  0.166646510  0.666626615
     0.166611727  0.416644485  0.166608860
     0.166616725  0.416680798  0.666609520
     0.166609164  0.666692030  0.166935577
     0.166503398  0.666813011  0.666751580
     0.166662649  0.916680785  0.166730473
     0.166569594  0.916769180  0.666688148
     0.333317205  0.166660242  0.166596897
     0.333087150  0.166355826  0.666554116
     0.333098155  0.416519726  0.166154710
     0.333681700  0.416983750  0.666487697
     0.333372743  0.666610367  0.166764715
     0.332815418  0.667664638  0.666832674
     0.333345372  0.916638211  0.166748236
     0.333337597  0.916607949  0.666717675
     0.500002145  0.166646547  0.166641032
     0.499981445  0.166568620  0.666512810
     0.499974869  0.416600564  0.166268804
     0.500015947  0.666680046  0.166662991
     0.500090431  0.665803317  0.667347595
     0.499998886  0.916612028  0.166756478
     0.500021043  0.916632284  0.666698450
     0.666666672  0.166676100  0.166590700
     0.666871376  0.166402086  0.666556479
     0.666832174  0.416554383  0.166145161
     0.665431707  0.417464878  0.666771148
     0.666635244  0.666622587  0.166893958
     0.667444383  0.667690793  0.667055278
     0.666649659  0.916625356  0.166775130
     0.666710998  0.916680562  0.666727152
     0.833332298  0.166678229  0.166624849
     0.833267898  0.166753609  0.666630827
     0.833242341  0.416683714  0.166722529
     0.833179521  0.416820341  0.666653653
     0.833365146  0.666688023  0.166965245
     0.833601095  0.666884304  0.666831348
     0.833320713  0.916680234  0.166742051
     0.833433242  0.916789101  0.666694521
     0.083326230  0.041686240  0.166655136
     0.083305400  0.041717676  0.666641735
     0.083309794  0.291668228  0.166639459
     0.083281574  0.291672799  0.666601971
     0.083314231  0.541657920  0.166760078
     0.083032316  0.541678659  0.666710340
     0.083330721  0.791694306  0.166785712
     0.083291755  0.791770470  0.666717116
     0.249999826  0.041655508  0.166632572
     0.249917717  0.041556882  0.666622787
     0.249932652  0.291638346  0.166491630
     0.249989768  0.291618393  0.666520354
     0.249987084  0.541633646  0.166691401
     0.248848334  0.541652171  0.666641930
     0.249994334  0.791650377  0.166768585
     0.249815480  0.791996619  0.666720884
     0.416665353  0.041637961  0.166685817
     0.416641545  0.041594515  0.666635452
     0.416637368  0.291659242  0.166436157
     0.415939023  0.290979280  0.666142795
     0.416656851  0.541620300  0.166530680
     0.416660121  0.791599275  0.166797295
     0.416732086  0.791496140  0.666816425
     0.583345347  0.041641057  0.166684635
     0.583362209  0.041613770  0.666635780
     0.583343779  0.291699942  0.166368445
     0.583992831  0.290991472  0.666154583
     0.583332584  0.541626566  0.166580063
     0.583327245  0.791556472  0.166904433
     0.583465477  0.791676318  0.666824012
     0.749991958  0.041659086  0.166632372
     0.750076801  0.041601322  0.666622267
     0.750008025  0.291661800  0.166496288
     0.749730626  0.291889020  0.666567568
     0.749939332  0.541644235  0.166746258
     0.751026930  0.541893804  0.666875495
     0.749980525  0.791650260  0.166818450
     0.750246084  0.792001148  0.666786861
     0.916643449  0.041686550  0.166657563
     0.916651203  0.041749332  0.666644194
     0.916609782  0.291681766  0.166661744
     0.916588640  0.291728666  0.666605585
     0.916622461  0.541659570  0.166795391
     0.916831095  0.541731614  0.666765132
     0.916658427  0.791692631  0.166795012
     0.916730660  0.791792912  0.666738793
     0.999987494  0.000028724  0.124998240
     0.999983583  0.000067054  0.624980845
     0.999970880  0.250022551  0.124963888
     0.999938230  0.250050663  0.624959453
     0.999964306  0.500007836  0.125073191
     0.999920664  0.500071074  0.625078369
     0.999999546  0.750026645  0.125116367
     0.000005222  0.750085621  0.625072987
     0.166654464  0.000009321  0.124988772
     0.166580097  0.999993275  0.624984051
     0.166624319  0.249999713  0.124891965
     0.166628744  0.250017316  0.624943921
     0.166626818  0.500003064  0.124989851
     0.166069604  0.500124232  0.625096675
     0.166621060  0.750032627  0.125137525
     0.166556094  0.750133617  0.625067750
     0.333351556  0.999972422  0.125010508
     0.333339779  0.999906132  0.624993404
     0.333314697  0.249999137  0.124803007
     0.333088392  0.249455150  0.624888714
     0.333312057  0.499949816  0.124749018
     0.332110522  0.500695718  0.625643772
     0.333334543  0.749964139  0.125084575
     0.332944846  0.750400222  0.625204358
     0.500006242  0.999960778  0.125036609
     0.499999770  0.999931845  0.625002009
     0.499995001  0.249968561  0.124847717
     0.499966373  0.249831074  0.624766135
     0.500011685  0.499983430  0.124655371
     0.500000820  0.749965290  0.125028612
     0.500351653  0.749486151  0.625233210
     0.666649557  0.999967647  0.125022917
     0.666683075  0.999952940  0.624991110
     0.666654960  0.250029582  0.124780550
     0.666807066  0.249528298  0.624901511
     0.666637927  0.499972628  0.124748821
     0.666261741  0.501830071  0.626798852
     0.666659732  0.749968166  0.125170092
     0.667087153  0.750452072  0.625241953
     0.833327223  0.000012984  0.124996332
     0.833402803  0.000022395  0.624984389
     0.833318623  0.250013722  0.124888508
     0.833207125  0.250199758  0.624944169
     0.833295282  0.500017201  0.125060799
     0.833711355  0.500177492  0.625139895
     0.833357934  0.750033934  0.125184854
     0.833488894  0.750180680  0.625112564
     0.083305268  0.125017490  0.124956432
     0.083280126  0.125036069  0.624969555
     0.083278171  0.375009024  0.124958441
     0.083284962  0.375016650  0.624995339
     0.083288976  0.625028978  0.125173062
     0.083222551  0.625086745  0.625088649
     0.083313787  0.875031019  0.125068995
     0.083272612  0.875073217  0.625022758
     0.249993152  0.124996854  0.124933434
     0.249883821  0.124793415  0.624965116
     0.249874294  0.374955493  0.124598683
     0.250259293  0.375105008  0.624948908
     0.249887194  0.625051719  0.125243307
     0.249657901  0.625209384  0.625131129
     0.249993817  0.874997396  0.125072196
     0.249865179  0.875128087  0.625053532
     0.416673793  0.124978274  0.124952297
     0.416627549  0.124853789  0.624935992
     0.416610412  0.374988523  0.124494419
     0.417358860  0.374794391  0.624740250
     0.416772048  0.624941500  0.124841994
     0.415402165  0.625532803  0.625962909
     0.416667000  0.874945663  0.125089666
     0.416772504  0.874846245  0.625076012
     0.583328463  0.124979468  0.124953161
     0.583353526  0.124877161  0.624930378
     0.583334981  0.375079694  0.124379774
     0.582348387  0.374861744  0.624796626
     0.583306106  0.624977236  0.124975911
     0.585104866  0.624212514  0.627118593
     0.583320245  0.874929174  0.125156931
     0.583342397  0.874951963  0.625087981
     0.749991314  0.125010684  0.124930355
     0.750064623  0.124848759  0.624966529
     0.750041081  0.374982839  0.124623124
     0.749375862  0.375628921  0.624949020
     0.750086228  0.625057528  0.125299066
     0.750459440  0.625339090  0.625181106
     0.749996952  0.874992844  0.125107758
     0.750147017  0.875153999  0.625070071
     0.916659267  0.125020806  0.124962570
     0.916630690  0.125088881  0.624969175
     0.916607116  0.375025329  0.125018641
     0.916527506  0.375065502  0.625001283
     0.916689864  0.625030791  0.125205446
     0.916788680  0.625119409  0.625126953
     0.916668273  0.875034677  0.125088642
     0.916722037  0.875086431  0.625025553
     0.999970276  0.083362513  0.458311743
     0.999985654  0.083380615  0.958311252
     0.999930389  0.333373504  0.458347660
     0.999952183  0.333357567  0.958302219
     0.999969711  0.583357647  0.458420654
     0.999999668  0.583398899  0.958500343
     0.999987122  0.833355238  0.458375276
     0.000002223  0.833406623  0.958428484
     0.166621036  0.083289117  0.458279734
     0.166650420  0.083354822  0.958297788
     0.166718680  0.333359015  0.458326768
     0.166613052  0.333346008  0.958136774
     0.166664994  0.583304227  0.458423186
     0.166541849  0.583414448  0.958525538
     0.166640618  0.833317386  0.458377576
     0.166596094  0.833403150  0.958432674
     0.333318062  0.083228494  0.458288861
     0.333335351  0.083319533  0.958305903
     0.333451588  0.333227206  0.458166820
     0.333330077  0.333385197  0.957947956
     0.333480500  0.583076838  0.458680513
     0.332927898  0.583601161  0.958789159
     0.333352147  0.833190222  0.458396298
     0.333304101  0.833353216  0.958405452
     0.499994908  0.083244918  0.458316458
     0.500000515  0.083325717  0.958308397
     0.499930555  0.333293899  0.458218877
     0.499978317  0.333251881  0.958016147
     0.499938354  0.581454154  0.459894167
     0.500342880  0.583287582  0.957595922
     0.500038270  0.833047829  0.458537122
     0.500002627  0.833358001  0.958405847
     0.666665612  0.083259529  0.458281222
     0.666657492  0.083320804  0.958310176
     0.666379818  0.333317179  0.458230327
     0.666616719  0.333444288  0.957903125
     0.666408940  0.583110473  0.458775815
     0.667087313  0.583636189  0.958844097
     0.666640792  0.833192695  0.458437416
     0.666703949  0.833385091  0.958464997
     0.833327026  0.083316441  0.458280500
     0.833317954  0.083370132  0.958301234
     0.833116131  0.333454716  0.458406481
     0.833302641  0.333372408  0.958139431
     0.833260484  0.583338718  0.458474034
     0.833495650  0.583445018  0.958594103
     0.833339116  0.833329011  0.458387264
     0.833394797  0.833429668  0.958476243
     0.083309718  0.208351350  0.458313300
     0.083314970  0.208358946  0.958279763
     0.083306659  0.458346527  0.458344944
     0.083306666  0.458363990  0.958345563
     0.083327716  0.708345838  0.458442717
     0.083316688  0.708394928  0.958484316
     0.083313238  0.958339521  0.458327295
     0.083323446  0.958386495  0.958367208
     0.249952721  0.208235673  0.458252828
     0.249986787  0.208355697  0.958231307
     0.250262703  0.458357734  0.458437581
     0.249963788  0.458373335  0.958171965
     0.250014314  0.708250332  0.458467998
     0.249869453  0.708453250  0.958560260
     0.249982722  0.958272761  0.458356427
     0.249982839  0.958350043  0.958393323
     0.416635144  0.208238726  0.458227416
     0.416652283  0.208328892  0.958207602
     0.417362834  0.458124431  0.458026438
     0.416737821  0.458385017  0.957478758
     0.416765251  0.707791202  0.458701851
     0.416661362  0.708381111  0.958363115
     0.416677423  0.958198568  0.458386605
     0.416647999  0.958327169  0.958381062
     0.583318788  0.208267109  0.458226945
     0.583330127  0.208327959  0.958208975
     0.582337593  0.458179460  0.458089210
     0.583282663  0.458724833  0.957086206
     0.583280470  0.707637795  0.459314430
     0.583393998  0.708419251  0.958443567
     0.583338473  0.958225991  0.458378021
     0.583345372  0.958326685  0.958407281
     0.749962230  0.208292573  0.458267819
     0.749963721  0.208384559  0.958217797
     0.749365664  0.458540835  0.459097626
[...]
 196      -0.002    -0.000     0.005       0.509
 197      -0.002    -0.001     0.008       0.151
 198       0.002     0.000    -0.002       0.692
 199       0.002     0.001    -0.003       0.457
 200       0.002    -0.001    -0.003       0.983
 201       0.007     0.005     0.019      -0.109
 202       0.006    -0.005     0.012      -0.867
 203       0.009     0.005     0.041      -0.104
 204       0.004    -0.002     0.008      -0.679
 205      -0.005    -0.005     0.012       0.027
 206      -0.002    -0.001     0.003       0.272
 207      -0.003    -0.000     0.005       0.453
 208       0.004     0.002    -0.005       0.327
 209       0.114     0.108     0.189      -0.033
 210       0.069     0.058     0.156      -0.073
 211       0.588     0.571     0.827      -0.020
 212       0.009    -0.003    -0.011       1.067
 213      -0.041     0.003    -0.048      -0.919
 214      -0.004    -0.001     0.005       0.503
 215      -0.004    -0.003     0.009       0.115
 216       0.028     0.015     0.052      -0.260
 217       0.099     0.095     0.188      -0.022
 218       0.078     0.077     0.187      -0.003
 219       0.160     0.149     0.262      -0.040
 220      -0.042     0.028    -0.053      -1.319
 221      -0.005    -0.001     0.008       0.601
 222      -0.006    -0.003     0.011       0.282
 223       0.004     0.002    -0.005       0.327
 224       0.108     0.102     0.181      -0.035
 225       0.063     0.051     0.146      -0.079
 226       0.614     0.599     0.855      -0.018
 227      -0.010    -0.001     0.010       0.894
 228      -0.023    -0.017     0.025       0.224
 229      -0.004    -0.001     0.005       0.497
 230      -0.004    -0.004     0.008       0.089
 231       0.002    -0.001    -0.003       0.972
 232       0.006     0.004     0.018      -0.109
 233      -0.005     0.005     0.012       0.903
 234       0.011     0.006     0.043      -0.100
 235      -0.003     0.002     0.007       0.763
 236      -0.005    -0.004     0.013       0.027
 237      -0.002    -0.001     0.003       0.285
 238      -0.002     0.000     0.006       0.435
 239       0.001    -0.000    -0.002       0.985
 240      -0.002     0.002     0.004       0.895
 241      -0.003     0.002     0.006       0.759
 242      -0.007    -0.006     0.009       0.090
 243       0.006     0.000    -0.007       0.935
 244      -0.009    -0.006     0.013       0.204
 245      -0.000     0.000     0.003       0.293
 246      -0.003     0.000     0.004       0.755
 247      -0.003    -0.001     0.003       0.480
 248       0.012     0.011     0.028      -0.053
 249      -0.006    -0.000    -0.013      -0.422
 250       0.018     0.016     0.060      -0.041
 251      -0.011    -0.002     0.011       0.793
 252      -0.021    -0.015     0.035       0.186
 253      -0.003    -0.001     0.005       0.471
 254      -0.007    -0.007     0.008       0.041
 255      -0.003     0.003     0.009       0.673
 256       0.003     0.001     0.024      -0.081
 257       0.021     0.013     0.044      -0.180
 258       1.754     1.727     2.507      -0.011
 259       0.065     0.063     0.159      -0.011
 260       0.006     0.000     0.015      -0.372
 261       0.012    -0.010    -0.013       1.608
 262      -0.003     0.003     0.009       0.669
 263       0.004     0.002     0.024      -0.078
 264       0.024     0.017     0.048      -0.152
 265       1.708     1.680     2.442      -0.012
 266       0.072     0.070     0.165      -0.012
 267       0.010     0.004     0.020      -0.293
 268      -0.010    -0.007     0.015       0.216
 269      -0.002    -0.001     0.003       0.468
 270       0.010     0.009     0.025      -0.065
 271      -0.007    -0.001    -0.014      -0.398
 272       0.018     0.015     0.059      -0.041
 273      -0.011    -0.002     0.011       0.771
 274      -0.013    -0.007     0.042       0.149
 275      -0.003    -0.001     0.005       0.448
 276      -0.007    -0.006     0.007       0.061
 277       0.001    -0.000    -0.002       0.956
 278      -0.003     0.001     0.004       1.047
 279      -0.003     0.002     0.006       0.781
 280      -0.008    -0.007     0.009       0.100
 281       0.006     0.000    -0.007       0.942
 282      -0.008    -0.006     0.013       0.203
 283      -0.001     0.000     0.003       0.320
 284      -0.003     0.000     0.004       0.742
 285       0.001     0.000    -0.002       0.660
 286       0.002     0.001    -0.003       0.323
 287       0.003    -0.001    -0.004       1.047
 288      -0.002    -0.001     0.010       0.111
 289       0.006     0.000    -0.007       0.854
 290      -0.007    -0.003     0.014       0.251
 291      -0.001    -0.001     0.002       0.293
 292       0.002    -0.001     0.006      -0.527
 293      -0.001    -0.001     0.002       0.167
 294       0.004     0.000     0.010      -0.330
 295      -0.003     0.002     0.005       1.167
 296      -0.009     0.009    -0.011      -1.648
 297       0.006     0.002    -0.009       0.444
 298      -0.014    -0.010     0.021       0.229
 299       0.002    -0.001    -0.003       1.273
 300      -0.005    -0.003     0.007       0.254
 301       0.004    -0.001    -0.004       1.238
 302      -0.005    -0.005     0.007       0.058
 303       0.006     0.000    -0.008       0.629
 304       0.212     0.206     0.344      -0.015
 305      -0.030    -0.005    -0.035      -0.715
 306      -0.088     0.032    -0.109      -1.096
 307       0.005    -0.001    -0.006       0.963
 308       0.024     0.020     0.055      -0.068
 309       0.005    -0.001    -0.007       0.958
 310      -0.008    -0.005     0.010       0.280
 311       0.143     0.134     0.184      -0.047
 312      -0.148    -0.059    -0.158      -0.562
 313       0.031    -0.030    -0.032       1.869
 314       0.093     0.084     0.134      -0.068
 315      -0.008    -0.000     0.038       0.190
 316       0.004    -0.001    -0.004       1.236
 317      -0.005    -0.005     0.008       0.059
 318       0.006     0.000    -0.009       0.624
 319       0.188     0.182     0.315      -0.017
 320      -0.030    -0.006    -0.035      -0.690
 321      -0.101     0.023    -0.121      -1.023
 322       0.005    -0.001    -0.006       0.946
 323       0.007     0.005     0.034      -0.066
 324      -0.001    -0.001     0.002       0.186
 325       0.004     0.000     0.010      -0.337
 326      -0.003     0.003     0.005       1.096
 327       0.009    -0.009    -0.010       1.735
 328       0.006     0.002    -0.009       0.454
 329      -0.015    -0.011     0.020       0.241
 330      -0.003    -0.001     0.003       0.621
 331      -0.005    -0.003     0.007       0.265
 332      -0.001    -0.001     0.002       0.260
 333       0.004    -0.001    -0.004       1.081
 334       0.005    -0.000    -0.008       0.642
 335       0.006     0.005     0.027      -0.058
 336       0.004    -0.000    -0.005       0.913
 337      -0.006    -0.005     0.010       0.033
 338       0.002    -0.000    -0.002       1.026
 339       0.003    -0.002     0.004      -0.947
 340       0.002    -0.001     0.005      -0.705
 341       0.038     0.036     0.066      -0.034
 342       0.063     0.049     0.077      -0.182
 343      -0.022    -0.014     0.040       0.193
 344       0.017     0.008     0.023      -0.360
 345      -0.018     0.017    -0.020      -1.780
 346      -0.003    -0.001     0.003       0.404
 347       0.001    -0.001     0.011      -0.166
 348      -0.002     0.001    -0.010      -0.247
 349      -0.020     0.006    -0.023      -1.162
 350      -0.019     0.018    -0.020      -1.874
 351      -1.062    -0.838    -1.126      -0.199
 352       0.013    -0.012    -0.016       1.611
 353       0.294     0.226     0.450      -0.150
 354       0.006    -0.001    -0.006       1.112
 355      -0.006    -0.004     0.012       0.177
 356      -0.002     0.001    -0.010      -0.247
 357      -0.021     0.005    -0.023      -1.124
 358      -0.025     0.011    -0.026      -1.393
 359      -1.150    -0.930    -1.212      -0.182
 360      -0.015    -0.011     0.015       0.237
 361       0.067     0.012     0.160      -0.343
 362       0.005    -0.001    -0.006       1.049
 363      -0.006    -0.004     0.012       0.172
 364       0.002    -0.001     0.005      -0.696
 365       0.033     0.031     0.060      -0.035
 366       0.059     0.045     0.072      -0.194
 367      -0.022    -0.015     0.040       0.192
 368       0.013     0.005     0.019      -0.403
 369       0.018    -0.017    -0.020       1.779
 370      -0.002    -0.001     0.003       0.382
 371      -0.003    -0.001     0.008       0.210
 372      -0.001    -0.001     0.002       0.268
 373       0.004    -0.001    -0.004       1.074
 374       0.005     0.000    -0.007       0.673
 375       0.006     0.005     0.027      -0.059
 376       0.004    -0.000    -0.005       0.963
 377      -0.006    -0.005     0.010       0.028
 378       0.002    -0.000    -0.002       0.989
 379      -0.002     0.002     0.004       1.145
 380       0.002     0.001    -0.003       0.193
 381       0.001     0.001    -0.002       0.261
 382      -0.007    -0.005     0.009       0.218
 383       0.006    -0.001    -0.006       1.065
 384      -0.005    -0.003     0.011       0.178
 385      -0.005    -0.000     0.005       0.904
 386       0.002     0.002    -0.003       0.177
 387       0.001     0.001    -0.002       0.081
 388      -0.001     0.000     0.006       0.298
 389      -0.001    -0.001     0.004       0.125
 390      -0.011     0.010    -0.014      -1.448
 391       0.004    -0.004     0.013      -0.621
 392      -0.013    -0.011     0.014       0.153
 393       0.006    -0.000    -0.007       0.897
 394      -0.003    -0.001     0.005       0.396
 395      -0.001    -0.001     0.002       0.115
 396      -0.006    -0.005     0.008       0.161
 397       0.004    -0.003    -0.007       1.191
 398      -0.084    -0.056    -0.108      -0.260
 399      -0.016     0.013    -0.023      -1.280
 400      -0.088     0.001    -0.100      -0.888
 401       0.024     0.015     0.055      -0.163
 402      -0.009     0.005    -0.010      -1.437
 403       0.004    -0.001    -0.005       1.040
 404      -0.009    -0.003     0.011       0.509
 405       0.008    -0.002    -0.008       1.226
 406      -0.136    -0.052    -0.172      -0.490
 407       0.540     0.538     0.790      -0.002
 408      -0.414     0.130    -0.447      -1.217
 409      -0.017    -0.008     0.036       0.250
 410       0.003    -0.001     0.026      -0.155
 411       0.014     0.007     0.024      -0.320
 412      -0.006    -0.005     0.008       0.154
 413       0.004    -0.003    -0.006       1.197
 414      -0.085    -0.056    -0.108      -0.264
 415      -0.016     0.013    -0.023      -1.258
 416      -0.089    -0.001    -0.101      -0.865
 417       0.007    -0.001     0.032      -0.258
 418      -0.008     0.006    -0.009      -1.564
 419       0.004    -0.001    -0.005       1.103
 420      -0.001     0.001     0.007       0.289
 421      -0.001    -0.000     0.004       0.127
 422      -0.010     0.010    -0.014      -1.473
 423      -0.005     0.003     0.011       0.721
 424       0.014    -0.011    -0.014       1.811
 425       0.006     0.000    -0.007       0.926
 426      -0.003    -0.001     0.006       0.399
 427      -0.001    -0.001     0.002       0.124
 428      -0.004    -0.003     0.005       0.266
 429      -0.002    -0.000     0.005       0.319
 430       0.005     0.001     0.024      -0.171
 431       0.006    -0.001    -0.009       0.818
 432      -0.005    -0.003     0.006       0.331
 433      -0.002    -0.001     0.003       0.499
 434       0.003     0.000    -0.003       0.758
 435      -0.002    -0.000     0.002       0.951
 436      -0.005    -0.003     0.016       0.163
 437       0.006     0.002     0.016      -0.230
 438      -0.026    -0.016     0.036       0.264
 439       0.010    -0.008    -0.017       1.078
 440       0.011    -0.011    -0.012       1.820
 441      -0.005    -0.000     0.005       0.942
 442      -0.003    -0.001     0.006       0.249
 443      -0.003    -0.002     0.003       0.288
 444      -0.019     0.012    -0.026      -1.176
 445      -0.018     0.000    -0.025      -0.709
 446      -1.080    -0.848    -1.146      -0.202
 447      -0.063    -0.015    -0.069      -0.703
 448      -0.058    -0.020    -0.069      -0.566
 449      -0.008     0.001     0.009       0.988
 450      -0.003    -0.001     0.011       0.189
 451       0.005    -0.002    -0.006       1.264
 452      -0.018     0.013    -0.025      -1.224
 453      -0.018     0.000    -0.025      -0.709
 454      -1.165    -0.937    -1.227      -0.186
 455      -0.057    -0.010    -0.062      -0.771
 456      -0.057    -0.017    -0.066      -0.596
 457       0.008    -0.001    -0.010       0.916
 458      -0.003    -0.001     0.011       0.190
 459       0.005    -0.002    -0.006       1.257
 460      -0.004    -0.002     0.017       0.145
 461       0.006     0.002     0.016      -0.224
 462      -0.027    -0.018     0.034       0.268
 463       0.010    -0.008    -0.017       1.048
 464       0.011    -0.011    -0.012       1.838
 465      -0.004     0.000     0.005       0.842
 466      -0.003    -0.001     0.006       0.254
 467      -0.003    -0.002     0.003       0.275
 468      -0.004    -0.003     0.005       0.267
 469      -0.002    -0.000     0.005       0.307
 470       0.005     0.001     0.024      -0.170
 471       0.006    -0.002    -0.009       0.809
 472      -0.005    -0.003     0.006       0.349
 473      -0.002    -0.001     0.003       0.497
 474       0.003     0.001    -0.003       0.789
 475      -0.002     0.000     0.002       0.965
 476      -0.002    -0.001     0.002       0.637
 477      -0.003    -0.001     0.004       0.605
 478      -0.008    -0.002     0.008       0.711
 479      -0.006    -0.001     0.012       0.333
 480      -0.004    -0.002     0.005       0.403
 481      -0.004    -0.002     0.005       0.327
 482       0.002     0.000    -0.002       0.521
 483       0.002     0.001    -0.002       0.544
 484      -0.003    -0.002     0.003       0.234
 485      -0.005    -0.004     0.006       0.155
 486       0.009    -0.006    -0.014       1.068
 487      -0.014    -0.009     0.015       0.363
 488      -0.007    -0.004     0.007       0.356
 489      -0.006    -0.005     0.007       0.220
 490      -0.002    -0.000     0.004       0.385
 491      -0.003    -0.001     0.003       0.601
 492       0.006    -0.003    -0.009       1.027
 493      -0.019     0.003    -0.023      -0.967
 494       0.211     0.202     0.349      -0.024
 495      -0.089     0.002    -0.095      -0.963
 496      -0.016    -0.012     0.018       0.233
 497       0.010    -0.010    -0.022       0.946
 498      -0.004    -0.003     0.005       0.327
 499      -0.005    -0.003     0.006       0.251
 500      -0.006     0.004     0.016       0.631
 501      -0.016    -0.011     0.021       0.231
 502      -0.137    -0.041    -0.146      -0.658
 503      -0.389     0.167    -0.417      -1.334
 504       0.546     0.541     0.786      -0.006
 505      -0.021    -0.013     0.027       0.297
 506      -0.005    -0.001     0.009       0.432
 507      -0.005    -0.001     0.011       0.362
 508       0.006    -0.003    -0.009       1.037
 509      -0.019     0.003    -0.023      -0.951
 510       0.192     0.183     0.324      -0.026
 511      -0.090    -0.000    -0.097      -0.925
 512      -0.016    -0.012     0.017       0.232
 513       0.013    -0.011    -0.019       1.247
 514      -0.004    -0.003     0.005       0.323
 515      -0.005    -0.003     0.006       0.251
 516      -0.003    -0.002     0.003       0.228
 517      -0.005    -0.004     0.006       0.164
 518       0.009    -0.006    -0.014       1.095
 519       0.014    -0.009    -0.015       1.592
 520      -0.007    -0.004     0.007       0.352
 521      -0.006    -0.005     0.007       0.217
 522      -0.001     0.000     0.004       0.391
 523      -0.003    -0.001     0.003       0.594
 524       0.002    -0.000    -0.002       0.815
 525       0.002    -0.000    -0.003       0.668
 526      -0.005    -0.002     0.006       0.615
 527       0.008     0.006     0.021      -0.103
 528      -0.004     0.001     0.013       0.375
 529      -0.008    -0.004     0.010       0.406
 530       0.003    -0.001    -0.003       1.207
 531       0.003    -0.000    -0.003       1.114
 532      -0.003    -0.002     0.004       0.292
 533      -0.004    -0.004     0.005       0.141
 534      -0.004     0.001     0.017       0.329
 535      -0.015    -0.013     0.020       0.116
 536       0.018    -0.012    -0.019       1.568
 537       0.017    -0.017    -0.022       1.540
 538      -0.003    -0.002     0.008       0.116
 539      -0.004    -0.003     0.006       0.179
 540      -0.006    -0.001     0.007       0.653
 541      -0.008    -0.006     0.008       0.295
 542      -0.016     0.014    -0.024      -1.213
 543      -0.123    -0.031    -0.131      -0.694
 544      -0.111    -0.014    -0.116      -0.841
 545       0.290     0.224     0.457      -0.145
 546      -0.010    -0.005     0.011       0.451
 547      -0.008    -0.003     0.011       0.436
 548      -0.006    -0.001     0.007       0.648
 549      -0.008    -0.006     0.008       0.293
 550      -0.016     0.013    -0.025      -1.203
 551      -0.130    -0.040    -0.139      -0.648
 552      -0.122    -0.025    -0.127      -0.766
 553       0.054     0.000     0.151      -0.361
 554       0.009    -0.007    -0.012       1.310
 555      -0.008    -0.003     0.011       0.410
 556      -0.003    -0.002     0.004       0.285
 557      -0.004    -0.004     0.005       0.145
 558      -0.004     0.002     0.017       0.308
 559      -0.014    -0.012     0.020       0.116
 560       0.018    -0.011    -0.018       1.608
 561       0.017    -0.016    -0.021       1.550
 562      -0.003    -0.002     0.007       0.109
 563      -0.004    -0.003     0.006       0.150
 564       0.002     0.000    -0.002       0.802
 565       0.002    -0.000    -0.003       0.656
 566      -0.005    -0.002     0.006       0.613
 567       0.007     0.005     0.020      -0.105
 568      -0.004     0.001     0.012       0.393
 569      -0.008    -0.004     0.010       0.407
 570       0.002    -0.001    -0.003       1.170
 571       0.003    -0.000    -0.003       1.073
 572      -0.634    -0.558    -0.758      -0.100
 573       0.241     0.035    -0.399       0.517
 574      14.848    14.803    25.896      -0.002
 575      14.588    14.547    25.546      -0.002
 576      -0.594    -0.516    -0.717      -0.109
 ---------------------------------------------------------------------



--------------------------------------------------------------------------------------------------------


     LOOP+:  cpu time 1267.9968: real time 1273.1805
    4ORBIT:  cpu time    0.0000: real time    0.0000

 total amount of memory used by VASP MPI-rank0   238704. kBytes
=======================================================================

   base      :      30000. kBytes
   nonlr-proj:       9227. kBytes
   fftplans  :      15014. kBytes
   grid      :      46644. kBytes
   one-center:        294. kBytes
   wavefun   :     137525. kBytes
 
  
  
 General timing and accounting informations for this job:
 ========================================================
  
                  Total CPU time used (sec):     1298.537
                            User time (sec):     1296.436
                          System time (sec):        2.101
                         Elapsed time (sec):     1305.805
  
                   Maximum memory used (kb):      434224.
                   Average memory used (kb):          N/A
  
                          Minor page faults:       442499
                          Major page faults:           34
                 Voluntary context switches:        13768
