 vasp.6.2.0 18Jan21 (build Apr 30 2021 19:00:08) gamma-only                     
  
 executed on             LinuxIFC date 2022.12.30  12:58:14
 running on   24 total cores
 distrk:  each k-point on   24 cores,    1 groups
 distr:  one band on NCORE=   6 cores,    4 groups


--------------------------------------------------------------------------------------------------------


 INCAR:
   SYSTEM = Diamond
   PREC = Normal
   ISTART = 0
   ICHARG = 11
   ISPIN = 2
   MAGMOM = 572*0.0 1*2.0 2*2.0 1*3
   NPAR = 4
   NELECT = 2303
   LHYPERFINE = T
   LEFG = T
   ENCUT = 700
   NELM = 1000
   NELMIN = 4
   EDIFF = 1E-06
   LREAL = Auto
   ALGO = Normal
   EDIFFG = -1E-02
   NSW = 0
   IBRION = 2
   ISIF = 2
   ISYM = 2
   POTIM = 0.5
   ISMEAR = 0
   SIGMA = 0.05
   NEDOS = 1000
   LWAVE = F
   LCHARG = F
   LVHAR = F
   LELF = F

 POTCAR:    PAW_PBE C 08Apr2002                   
 POTCAR:    PAW_PBE H 15Jun2001                   
 POTCAR:    PAW_PBE C 08Apr2002                   
 POTCAR:    PAW_PBE N 08Apr2002                   
 POTCAR:    PAW_PBE C 08Apr2002                   
   VRHFIN =C: s2p2                                                                                  
   LEXCH  = PE                                                                                      
   EATOM  =   147.1560 eV,   10.8157 Ry                                                             
                                                                                                    
   TITEL  = PAW_PBE C 08Apr2002                                                                     
   LULTRA =        F    use ultrasoft PP ?                                                          
   IUNSCR =        1    unscreen: 0-lin 1-nonlin 2-no                                               
   RPACOR =    1.200    partial core radius                                                         
   POMASS =   12.011; ZVAL   =    4.000    mass and valenz                                          
   RCORE  =    1.500    outmost cutoff radius                                                       
   RWIGS  =    1.630; RWIGS  =    0.863    wigner-seitz radius (au A)                               
   ENMAX  =  400.000; ENMIN  =  300.000 eV                                                          
   ICORE  =        2    local potential                                                             
   LCOR   =        T    correct aug charges                                                         
   LPAW   =        T    paw PP                                                                      
   EAUG   =  644.873                                                                                
   DEXC   =    0.000                                                                                
   RMAX   =    1.529    core radius for proj-oper                                                   
   RAUG   =    1.300    factor for augmentation sphere                                              
   RDEP   =    1.501    radius for radial grids                                                     
   RDEPT  =    1.300    core radius for aug-charge                                                  
                                                                                                    
   Atomic configuration                                                                             
    4 entries                                                                                       
     n  l   j            E        occ.                                                              
     1  0  0.50      -273.3789   2.0000                                                             
     2  0  0.50       -13.7508   2.0000                                                             
     2  1  0.50        -5.2854   2.0000                                                             
     3  2  1.50        -5.4423   0.0000                                                             
   Description                                                                                      
     l       E           TYP  RCUT    TYP  RCUT                                                     
     0    -13.7508458     23  1.200                                                                 
     0     -8.2022199     23  1.200                                                                 
     1     -5.2854383     23  1.500                                                                 
     1     34.0145650     23  1.500                                                                 
     2     -5.4423304      7  1.500                                                                 
  local pseudopotential read in
  partial core-charges read in
  partial kinetic energy density read in
  atomic valenz-charges read in
  non local Contribution for L=           0  read in
    real space projection operators read in
  non local Contribution for L=           0  read in
    real space projection operators read in
  non local Contribution for L=           1  read in
    real space projection operators read in
  non local Contribution for L=           1  read in
    real space projection operators read in
    PAW grid and wavefunctions read in
 
   number of l-projection  operators is LMAX  =           4
   number of lm-projection operators is LMMAX =           8
 
 POTCAR:    PAW_PBE H 15Jun2001                   
   VRHFIN =H: ultrasoft test                                                                        
   LEXCH  = PE                                                                                      
   EATOM  =    12.4884 eV,    0.9179 Ry                                                             
                                                                                                    
   TITEL  = PAW_PBE H 15Jun2001                                                                     
   LULTRA =        F    use ultrasoft PP ?                                                          
   IUNSCR =        0    unscreen: 0-lin 1-nonlin 2-no                                               
   RPACOR =    0.000    partial core radius                                                         
   POMASS =    1.000; ZVAL   =    1.000    mass and valenz                                          
   RCORE  =    1.100    outmost cutoff radius                                                       
   RWIGS  =    0.700; RWIGS  =    0.370    wigner-seitz radius (au A)                               
   ENMAX  =  250.000; ENMIN  =  200.000 eV                                                          
   RCLOC  =    0.701    cutoff for local pot                                                        
   LCOR   =        T    correct aug charges                                                         
   LPAW   =        T    paw PP                                                                      
   EAUG   =  400.000                                                                                
   RMAX   =    1.123    core radius for proj-oper                                                   
   RAUG   =    1.200    factor for augmentation sphere                                              
   RDEP   =    1.112    radius for radial grids                                                     
   RDEPT  =    0.926    core radius for aug-charge                                                  
                                                                                                    
   Atomic configuration                                                                             
    2 entries                                                                                       
     n  l   j            E        occ.                                                              
     1  0  0.50        -6.4927   1.0000                                                             
     2  1  0.50        -3.4015   0.0000                                                             
   Description                                                                                      
     l       E           TYP  RCUT    TYP  RCUT                                                     
     0     -6.4927494     23  1.100                                                                 
     0      6.8029130     23  1.100                                                                 
     1     -4.0817478     23  1.100                                                                 
  local pseudopotential read in
  atomic valenz-charges read in
  non local Contribution for L=           0  read in
    real space projection operators read in
  non local Contribution for L=           0  read in
    real space projection operators read in
  non local Contribution for L=           1  read in
    real space projection operators read in
    PAW grid and wavefunctions read in
 
   number of l-projection  operators is LMAX  =           3
   number of lm-projection operators is LMMAX =           5
 
 POTCAR:    PAW_PBE C 08Apr2002                   
   VRHFIN =C: s2p2                                                                                  
   LEXCH  = PE                                                                                      
   EATOM  =   147.1560 eV,   10.8157 Ry                                                             
                                                                                                    
   TITEL  = PAW_PBE C 08Apr2002                                                                     
   LULTRA =        F    use ultrasoft PP ?                                                          
   IUNSCR =        1    unscreen: 0-lin 1-nonlin 2-no                                               
   RPACOR =    1.200    partial core radius                                                         
   POMASS =   12.011; ZVAL   =    4.000    mass and valenz                                          
   RCORE  =    1.500    outmost cutoff radius                                                       
   RWIGS  =    1.630; RWIGS  =    0.863    wigner-seitz radius (au A)                               
   ENMAX  =  400.000; ENMIN  =  300.000 eV                                                          
   ICORE  =        2    local potential                                                             
   LCOR   =        T    correct aug charges                                                         
   LPAW   =        T    paw PP                                                                      
   EAUG   =  644.873                                                                                
   DEXC   =    0.000                                                                                
   RMAX   =    1.529    core radius for proj-oper                                                   
   RAUG   =    1.300    factor for augmentation sphere                                              
   RDEP   =    1.501    radius for radial grids                                                     
   RDEPT  =    1.300    core radius for aug-charge                                                  
                                                                                                    
   Atomic configuration                                                                             
    4 entries                                                                                       
     n  l   j            E        occ.                                                              
     1  0  0.50      -273.3789   2.0000                                                             
     2  0  0.50       -13.7508   2.0000                                                             
     2  1  0.50        -5.2854   2.0000                                                             
     3  2  1.50        -5.4423   0.0000                                                             
   Description                                                                                      
     l       E           TYP  RCUT    TYP  RCUT                                                     
     0    -13.7508458     23  1.200                                                                 
     0     -8.2022199     23  1.200                                                                 
     1     -5.2854383     23  1.500                                                                 
     1     34.0145650     23  1.500                                                                 
     2     -5.4423304      7  1.500                                                                 
  local pseudopotential read in
  partial core-charges read in
  partial kinetic energy density read in
  atomic valenz-charges read in
  non local Contribution for L=           0  read in
    real space projection operators read in
  non local Contribution for L=           0  read in
    real space projection operators read in
  non local Contribution for L=           1  read in
    real space projection operators read in
  non local Contribution for L=           1  read in
    real space projection operators read in
    PAW grid and wavefunctions read in
 
   number of l-projection  operators is LMAX  =           4
   number of lm-projection operators is LMMAX =           8
 
 POTCAR:    PAW_PBE N 08Apr2002                   
   VRHFIN =N: s2p3                                                                                  
   LEXCH  = PE                                                                                      
   EATOM  =   264.5486 eV,   19.4438 Ry                                                             
                                                                                                    
   TITEL  = PAW_PBE N 08Apr2002                                                                     
   LULTRA =        F    use ultrasoft PP ?                                                          
   IUNSCR =        1    unscreen: 0-lin 1-nonlin 2-no                                               
   RPACOR =    1.200    partial core radius                                                         
   POMASS =   14.001; ZVAL   =    5.000    mass and valenz                                          
   RCORE  =    1.500    outmost cutoff radius                                                       
   RWIGS  =    1.400; RWIGS  =    0.741    wigner-seitz radius (au A)                               
   ENMAX  =  400.000; ENMIN  =  300.000 eV                                                          
   ICORE  =        2    local potential                                                             
   LCOR   =        T    correct aug charges                                                         
   LPAW   =        T    paw PP                                                                      
   EAUG   =  627.112                                                                                
   DEXC   =    0.000                                                                                
   RMAX   =    1.529    core radius for proj-oper                                                   
   RAUG   =    1.300    factor for augmentation sphere                                              
   RDEP   =    1.514    radius for radial grids                                                     
   RDEPT  =    1.338    core radius for aug-charge                                                  
                                                                                                    
   Atomic configuration                                                                             
    4 entries                                                                                       
     n  l   j            E        occ.                                                              
     1  0  0.50      -384.7179   2.0000                                                             
     2  0  0.50       -18.5828   2.0000                                                             
     2  1  0.50        -7.0898   3.0000                                                             
     3  2  1.50        -6.8029   0.0000                                                             
   Description                                                                                      
     l       E           TYP  RCUT    TYP  RCUT                                                     
     0    -18.5828119     23  1.200                                                                 
     0    -13.5018863     23  1.200                                                                 
     1     -7.0897853     23  1.500                                                                 
     1      9.5240782     23  1.500                                                                 
     2     -6.8029130      7  1.500                                                                 
  local pseudopotential read in
  partial core-charges read in
  partial kinetic energy density read in
  atomic valenz-charges read in
  non local Contribution for L=           0  read in
    real space projection operators read in
  non local Contribution for L=           0  read in
    real space projection operators read in
  non local Contribution for L=           1  read in
    real space projection operators read in
  non local Contribution for L=           1  read in
    real space projection operators read in
    PAW grid and wavefunctions read in
 
   number of l-projection  operators is LMAX  =           4
   number of lm-projection operators is LMMAX =           8
 
 Optimization of the real space projectors (new method)

 maximal supplied QI-value         = 25.13
 optimisation between [QCUT,QGAM] = [ 13.32, 26.89] = [ 49.69,202.52] Ry 
 Optimized for a Real-space Cutoff    1.01 Angstroem

   l    n(q)    QCUT    max X(q) W(low)/X(q) W(high)/X(q)  e(spline) 
   0      8    13.321   115.676    0.29E-03    0.42E-03    0.11E-06
   0      8    13.321    87.132    0.29E-03    0.42E-03    0.11E-06
   1      8    13.321     4.429    0.39E-03    0.33E-03    0.98E-07
   1      8    13.321     2.733    0.30E-03    0.26E-03    0.97E-07
 Optimization of the real space projectors (new method)

 maximal supplied QI-value         = 34.20
 optimisation between [QCUT,QGAM] = [ 13.34, 27.02] = [ 49.83,204.46] Ry 
 Optimized for a Real-space Cutoff    0.93 Angstroem

   l    n(q)    QCUT    max X(q) W(low)/X(q) W(high)/X(q)  e(spline) 
   0      7    13.340    19.460    0.47E-03    0.72E-04    0.17E-06
   0      7    13.340    12.209    0.45E-03    0.63E-04    0.16E-06
   1      7    13.340     4.655    0.21E-03    0.61E-03    0.12E-06
 Optimization of the real space projectors (new method)

 maximal supplied QI-value         = 25.13
 optimisation between [QCUT,QGAM] = [ 13.32, 26.89] = [ 49.69,202.52] Ry 
 Optimized for a Real-space Cutoff    1.01 Angstroem

   l    n(q)    QCUT    max X(q) W(low)/X(q) W(high)/X(q)  e(spline) 
   0      8    13.321   115.676    0.29E-03    0.42E-03    0.11E-06
   0      8    13.321    87.132    0.29E-03    0.42E-03    0.11E-06
   1      8    13.321     4.429    0.39E-03    0.33E-03    0.98E-07
   1      8    13.321     2.733    0.30E-03    0.26E-03    0.97E-07
 Optimization of the real space projectors (new method)

 maximal supplied QI-value         = 25.13
 optimisation between [QCUT,QGAM] = [ 13.32, 26.89] = [ 49.69,202.52] Ry 
 Optimized for a Real-space Cutoff    1.01 Angstroem

   l    n(q)    QCUT    max X(q) W(low)/X(q) W(high)/X(q)  e(spline) 
   0      8    13.321    79.467    0.28E-03    0.38E-03    0.11E-06
   0      8    13.321    66.151    0.27E-03    0.38E-03    0.11E-06
   1      8    13.321    23.070    0.40E-03    0.78E-03    0.29E-06
   1      8    13.321    16.668    0.40E-03    0.79E-03    0.30E-06
  PAW_PBE C 08Apr2002                   :
 energy of atom  1       EATOM= -147.1560
 kinetic energy error for atom=    0.0032 (will be added to EATOM!!)
  PAW_PBE H 15Jun2001                   :
 energy of atom  2       EATOM=  -12.4884
 kinetic energy error for atom=    0.0002 (will be added to EATOM!!)
  PAW_PBE C 08Apr2002                   :
 energy of atom  3       EATOM= -147.1560
 kinetic energy error for atom=    0.0032 (will be added to EATOM!!)
  PAW_PBE N 08Apr2002                   :
 energy of atom  4       EATOM= -264.5486
 kinetic energy error for atom=    0.0061 (will be added to EATOM!!)
 
 
 POSCAR: Autosave
  positions in direct lattice
  velocities in cartesian coordinates
 exchange correlation table for  LEXCH =        8
   RHO(1)=    0.500       N(1)  =     2000
   RHO(2)=  100.500       N(2)  =     4000
 


--------------------------------------------------------------------------------------------------------


 ion  position               nearest neighbor table
   1  1.000  0.000  0.000- 285 1.55 435 1.55 381 1.55 475 1.55
   2  0.000  0.000  0.500- 286 1.55 380 1.55 434 1.55 474 1.55
   3  0.000  0.250  0.000- 287 1.55 429 1.55 383 1.55 469 1.55
   4  0.000  0.250  0.500- 288 1.55 428 1.55 382 1.55 468 1.55
   5  1.000  0.500  0.000- 289 1.55 431 1.55 385 1.55 471 1.55
   6  0.000  0.500  0.500- 290 1.55 384 1.55 430 1.55 470 1.55
   7  1.000  0.750  0.000- 433 1.55 291 1.55 387 1.55 473 1.55
   8  1.000  0.750  0.500- 292 1.55 432 1.55 472 1.55 386 1.55
   9  0.167  1.000  0.000- 293 1.55 435 1.55 389 1.55 443 1.55
  10  0.167  1.000  0.500- 434 1.55 294 1.55 388 1.55 442 1.55
  11  0.167  0.250  0.000- 295 1.55 429 1.55 437 1.55 391 1.55
  12  0.167  0.250  0.500- 296 1.55 436 1.55 390 1.55 428 1.55
  13  0.167  0.500  0.000- 297 1.55 431 1.55 439 1.55 393 1.55
  14  0.167  0.500  0.500- 298 1.55 392 1.55 430 1.55 438 1.55
  15  0.167  0.750  0.000- 441 1.54 299 1.55 395 1.55 433 1.55
  16  0.167  0.750  0.500- 432 1.55 394 1.55 300 1.55 440 1.55
  17  0.333  1.000  0.000- 397 1.55 301 1.55 443 1.55 451 1.55
  18  0.333  1.000  0.500- 302 1.55 442 1.55 450 1.55 396 1.55
  19  0.333  0.250  0.000- 303 1.55 437 1.55 445 1.55 399 1.55
  20  0.333  0.250  0.500- 444 1.55 436 1.55 304 1.55 398 1.55
  21  0.333  0.500  0.000- 305 1.55 439 1.55 401 1.55 447 1.55
  22  0.335  0.501  0.501- 400 1.54 446 1.55 306 1.56 438 1.56
  23  0.333  0.750  0.000- 307 1.55 403 1.55 441 1.55 449 1.55
  24  0.333  0.750  0.500- 308 1.55 440 1.55 402 1.55 448 1.55
  25  0.500  1.000  0.000- 405 1.55 309 1.55 451 1.55 459 1.55
  26  0.500  1.000  0.500- 310 1.55 404 1.55 450 1.55 458 1.55
  27  0.500  0.250  0.000- 407 1.54 311 1.54 445 1.55 453 1.55
  28  0.500  0.250  0.500- 312 1.55 444 1.55 452 1.55 406 1.55
  29  0.500  0.500  0.999- 409 1.54 447 1.55 455 1.55 313 1.55
  30  0.500  0.750  1.000- 314 1.54 411 1.55 449 1.55 457 1.55
  31  0.500  0.750  0.500- 315 1.54 448 1.54 456 1.55 410 1.55
  32  0.667  1.000  0.000- 413 1.55 316 1.55 467 1.55 459 1.55
  33  0.667  1.000  0.500- 317 1.55 466 1.55 412 1.55 458 1.55
  34  0.667  0.250  0.000- 318 1.55 453 1.55 461 1.55 415 1.55
  35  0.667  0.250  0.500- 460 1.55 452 1.55 319 1.55 414 1.55
  36  0.667  0.500  1.000- 320 1.55 463 1.55 417 1.55 455 1.55
  37  0.667  0.500  0.500- 462 1.54 416 1.54 454 1.55 321 1.55
  38  0.667  0.750  1.000- 322 1.55 419 1.55 465 1.55 457 1.55
  39  0.667  0.750  0.500- 418 1.54 323 1.55 464 1.55 456 1.55
  40  0.833  1.000  0.000- 324 1.55 475 1.55 421 1.55 467 1.55
  41  0.833  0.000  0.500- 474 1.55 420 1.55 325 1.55 466 1.55
  42  0.833  0.250  1.000- 469 1.55 326 1.55 461 1.55 423 1.55
  43  0.833  0.250  0.500- 327 1.55 468 1.55 460 1.55 422 1.55
  44  0.833  0.500  1.000- 328 1.55 471 1.55 425 1.55 463 1.55
  45  0.834  0.500  0.500- 470 1.54 329 1.55 424 1.55 462 1.55
  46  0.833  0.750  0.000- 330 1.55 473 1.55 427 1.55 465 1.55
  47  0.833  0.750  0.500- 426 1.55 472 1.55 331 1.55 464 1.55
  48  0.083  0.125  0.000- 332 1.55 429 1.55 381 1.55 389 1.55
  49  0.083  0.125  0.500- 333 1.55 388 1.55 380 1.55 428 1.55
  50  0.083  0.375  0.000- 391 1.55 431 1.55 334 1.55 383 1.55
  51  0.083  0.375  0.500- 335 1.55 430 1.55 390 1.55 382 1.55
  52  0.083  0.625  0.000- 393 1.54 336 1.55 385 1.55 433 1.55
  53  0.083  0.625  0.500- 384 1.55 337 1.55 432 1.55 392 1.55
  54  0.083  0.875  0.000- 395 1.55 338 1.55 435 1.55 387 1.55
  55  0.083  0.875  0.500- 386 1.55 434 1.55 339 1.55 394 1.55
  56  0.250  0.125  0.000- 340 1.55 389 1.55 437 1.55 397 1.55
  57  0.250  0.125  0.500- 341 1.55 388 1.55 396 1.55 436 1.55
  58  0.250  0.375  0.000- 342 1.55 391 1.55 439 1.55 399 1.55
  59  0.250  0.375  0.500- 343 1.54 438 1.54 398 1.55 390 1.55
  60  0.250  0.625  0.001- 401 1.54 344 1.54 393 1.55 441 1.55
  61  0.250  0.625  0.500- 392 1.55 440 1.55 345 1.55 400 1.55
  62  0.250  0.875  0.000- 346 1.55 443 1.55 395 1.55 403 1.55
  63  0.250  0.875  0.500- 394 1.55 347 1.55 442 1.55 402 1.55
  64  0.417  0.125  0.000- 445 1.55 348 1.55 397 1.55 405 1.55
  65  0.417  0.125  0.500- 349 1.55 396 1.55 404 1.55 444 1.55
  66  0.417  0.375  1.000- 399 1.55 350 1.55 407 1.55 447 1.55
  67  0.417  0.375  0.501- 406 1.54 351 1.55 398 1.55 446 1.55
  68  0.417  0.625  1.000- 449 1.55 401 1.55 352 1.55 409 1.55
  69  0.417  0.624  0.501- 400 1.54 408 1.55 448 1.56 353 1.56
  70  0.417  0.875  0.000- 451 1.55 403 1.55 354 1.55 411 1.55
  71  0.417  0.875  0.500- 355 1.55 402 1.55 410 1.55 450 1.55
  72  0.583  0.125  0.000- 453 1.55 356 1.55 405 1.55 413 1.55
  73  0.583  0.125  0.500- 357 1.55 412 1.55 404 1.55 452 1.55
  74  0.583  0.375  1.000- 358 1.55 415 1.55 407 1.55 455 1.55
  75  0.583  0.375  0.500- 406 1.54 414 1.55 359 1.55 454 1.56
  76  0.583  0.625  0.999- 457 1.55 417 1.55 360 1.55 409 1.55
  77  0.583  0.625  0.500- 456 1.54 416 1.55 408 1.55 361 1.55
  78  0.583  0.875  1.000- 459 1.55 362 1.55 411 1.55 419 1.55
  79  0.583  0.875  0.500- 363 1.55 410 1.55 458 1.55 418 1.55
  80  0.750  0.125  0.000- 364 1.55 421 1.55 461 1.55 413 1.55
  81  0.750  0.125  0.500- 420 1.55 365 1.55 412 1.55 460 1.55
  82  0.750  0.375  1.000- 366 1.54 423 1.55 415 1.55 463 1.55
  83  0.750  0.375  0.500- 367 1.55 414 1.55 422 1.55 462 1.55
  84  0.750  0.625  1.000- 368 1.54 417 1.55 465 1.55 425 1.55
  85  0.750  0.625  0.500- 464 1.55 369 1.55 424 1.55 416 1.55
  86  0.750  0.875  1.000- 467 1.55 370 1.55 427 1.55 419 1.55
  87  0.750  0.875  0.500- 466 1.55 426 1.55 371 1.55 418 1.55
  88  0.917  0.125  0.000- 372 1.55 381 1.55 469 1.55 421 1.55
  89  0.917  0.125  0.500- 380 1.55 373 1.55 468 1.55 420 1.55
  90  0.917  0.375  1.000- 383 1.55 374 1.55 471 1.55 423 1.55
  91  0.917  0.375  0.500- 375 1.55 382 1.55 470 1.55 422 1.55
  92  0.917  0.625  0.000- 385 1.55 376 1.55 473 1.55 425 1.55
  93  0.917  0.625  0.500- 384 1.55 377 1.55 424 1.55 472 1.55
  94  0.917  0.875  0.000- 387 1.55 378 1.55 475 1.55 427 1.55
  95  0.917  0.875  0.500- 386 1.55 474 1.55 379 1.55 426 1.55
  96  0.000  0.083  0.333- 380 1.55 476 1.55 524 1.55 564 1.55
  97  1.000  0.083  0.833- 477 1.55 381 1.55 525 1.55 565 1.55
  98  0.000  0.333  0.333- 382 1.55 526 1.55 478 1.55 566 1.55
  99  1.000  0.333  0.833- 383 1.55 527 1.55 479 1.55 567 1.55
 100  0.000  0.583  0.333- 384 1.55 528 1.55 480 1.55 568 1.55
 101  1.000  0.583  0.833- 529 1.54 569 1.55 385 1.55 481 1.55
 102  0.000  0.833  0.333- 386 1.55 482 1.55 530 1.55 570 1.55
 103  1.000  0.833  0.833- 531 1.55 387 1.55 483 1.55 571 1.55
 104  0.167  0.083  0.333- 388 1.55 524 1.55 532 1.55 484 1.55
 105  0.167  0.083  0.833- 525 1.55 389 1.55 485 1.55 533 1.55
 106  0.167  0.333  0.334- 486 1.55 390 1.55 534 1.55 526 1.55
 107  0.167  0.333  0.833- 527 1.55 391 1.55 535 1.55 487 1.55
 108  0.167  0.583  0.334- 392 1.55 488 1.55 528 1.55 536 1.55
 109  0.166  0.583  0.834- 537 1.54 529 1.55 393 1.55 489 1.55
 110  0.167  0.833  0.333- 394 1.55 530 1.55 490 1.55 538 1.55
 111  0.167  0.833  0.833- 539 1.55 491 1.55 395 1.55 531 1.55
 112  0.333  0.083  0.333- 396 1.55 532 1.55 540 1.55 492 1.55
 113  0.333  0.083  0.833- 493 1.54 533 1.55 397 1.55 541 1.55
 114  0.334  0.333  0.334- 542 1.55 494 1.55 534 1.55 398 1.55
 115  0.333  0.333  0.833- 399 1.54 535 1.54 543 1.55 495 1.55
 116  0.334  0.583  0.334- 496 1.55 536 1.55 544 1.55 400 1.55
 117  0.332  0.584  0.835- 401 1.54 545 1.54 537 1.55 497 1.55
 118  0.333  0.833  0.333- 402 1.55 546 1.55 538 1.55 498 1.55
 119  0.333  0.833  0.833- 499 1.55 403 1.55 539 1.55 547 1.55
 120  0.500  0.083  0.333- 404 1.55 500 1.55 548 1.55 540 1.55
 121  0.500  0.083  0.833- 501 1.55 405 1.55 541 1.55 549 1.55
 122  0.500  0.333  0.334- 542 1.55 502 1.55 550 1.55 406 1.55
 123  0.500  0.333  0.835- 407 1.54 503 1.54 543 1.55 551 1.55
 124  0.500  0.584  0.332- 504 1.54 544 1.55 552 1.55 408 1.55
 125  0.500  0.583  0.831- 505 1.54 553 1.55 545 1.56 409 1.56
 126  0.500  0.833  0.333- 546 1.55 410 1.55 506 1.55 554 1.55
 127  0.500  0.833  0.833- 507 1.55 411 1.55 547 1.55 555 1.55
 128  0.667  0.083  0.333- 412 1.55 556 1.55 508 1.55 548 1.55
 129  0.667  0.083  0.833- 509 1.55 413 1.55 557 1.55 549 1.55
 130  0.667  0.333  0.333- 558 1.55 550 1.55 510 1.55 414 1.55
 131  0.667  0.333  0.833- 415 1.55 551 1.55 559 1.55 511 1.55
 132  0.667  0.583  0.333- 512 1.55 560 1.55 552 1.55 416 1.55
 133  0.667  0.583  0.833- 417 1.54 513 1.55 561 1.55 553 1.57
 134  0.667  0.833  0.333- 514 1.55 418 1.55 562 1.55 554 1.55
 135  0.667  0.833  0.833- 515 1.55 419 1.55 563 1.55 555 1.55
 136  0.833  0.083  0.333- 420 1.55 564 1.55 516 1.55 556 1.55
 137  0.833  0.083  0.833- 565 1.55 421 1.55 517 1.55 557 1.55
 138  0.833  0.333  0.333- 566 1.55 422 1.55 558 1.55 518 1.55
 139  0.833  0.333  0.833- 423 1.55 567 1.55 559 1.55 519 1.55
 140  0.833  0.583  0.333- 568 1.55 424 1.55 520 1.55 560 1.55
 141  0.833  0.583  0.833- 425 1.55 569 1.55 521 1.55 561 1.55
 142  0.833  0.833  0.333- 426 1.55 570 1.55 522 1.55 562 1.55
 143  0.833  0.833  0.833- 571 1.55 427 1.55 523 1.55 563 1.55
 144  0.083  0.208  0.333- 428 1.55 484 1.55 526 1.55 476 1.55
 145  0.083  0.208  0.833- 485 1.55 429 1.55 527 1.55 477 1.55
 146  0.083  0.458  0.333- 430 1.55 486 1.55 528 1.55 478 1.55
 147  0.083  0.458  0.833- 431 1.55 487 1.55 479 1.55 529 1.55
 148  0.083  0.708  0.333- 432 1.55 488 1.55 530 1.55 480 1.55
 149  0.083  0.708  0.833- 489 1.54 433 1.55 531 1.55 481 1.55
 150  0.083  0.958  0.333- 434 1.55 490 1.55 524 1.55 482 1.55
 151  0.083  0.958  0.833- 491 1.55 525 1.55 435 1.55 483 1.55
 152  0.250  0.208  0.333- 436 1.55 492 1.55 484 1.55 534 1.55
 153  0.250  0.208  0.833- 485 1.55 437 1.55 493 1.55 535 1.55
 154  0.250  0.458  0.334- 536 1.55 494 1.55 486 1.55 438 1.55
 155  0.250  0.458  0.834- 439 1.54 487 1.55 537 1.55 495 1.55
 156  0.250  0.708  0.333- 440 1.55 488 1.55 538 1.55 496 1.55
 157  0.250  0.709  0.834- 497 1.54 441 1.55 539 1.55 489 1.55
 158  0.250  0.958  0.333- 442 1.55 490 1.55 498 1.55 532 1.55
 159  0.250  0.958  0.833- 533 1.55 443 1.55 491 1.55 499 1.55
 160  0.417  0.208  0.333- 444 1.55 492 1.55 500 1.55 542 1.55
 161  0.417  0.208  0.834- 543 1.54 445 1.55 493 1.55 501 1.55
 162  0.417  0.458  0.333- 494 1.54 544 1.55 502 1.55 446 1.57
 163  0.416  0.458  0.832- 495 1.54 503 1.55 447 1.55 545 1.56
 164  0.417  0.708  0.334- 496 1.55 504 1.55 546 1.55 448 1.55
 165  0.417  0.708  0.833- 449 1.55 547 1.55 497 1.55 505 1.55
 166  0.417  0.958  0.333- 450 1.55 498 1.55 540 1.55 506 1.55
 167  0.417  0.958  0.833- 541 1.55 451 1.55 499 1.55 507 1.55
 168  0.583  0.208  0.333- 452 1.55 508 1.55 500 1.55 550 1.55
 169  0.583  0.208  0.834- 551 1.54 453 1.55 509 1.55 501 1.55
 170  0.584  0.458  0.332- 510 1.54 502 1.55 552 1.55 454 1.55
 171  0.583  0.458  0.832- 511 1.54 503 1.55 455 1.55 553 1.55
 172  0.583  0.708  0.333- 554 1.54 512 1.55 504 1.55 456 1.55
 173  0.583  0.708  0.833- 457 1.55 555 1.55 513 1.55 505 1.55
 174  0.583  0.958  0.333- 458 1.55 548 1.55 514 1.55 506 1.55
 175  0.583  0.958  0.833- 549 1.55 459 1.55 515 1.55 507 1.55
 176  0.750  0.208  0.333- 460 1.55 516 1.55 558 1.55 508 1.55
 177  0.750  0.208  0.833- 517 1.55 461 1.55 509 1.55 559 1.55
 178  0.750  0.458  0.333- 518 1.54 560 1.55 510 1.55 462 1.55
 179  0.750  0.458  0.833- 463 1.55 561 1.55 519 1.55 511 1.55
 180  0.750  0.708  0.333- 562 1.55 464 1.55 520 1.55 512 1.55
 181  0.750  0.708  0.833- 465 1.55 521 1.55 563 1.55 513 1.55
 182  0.750  0.958  0.333- 466 1.55 556 1.55 522 1.55 514 1.55
 183  0.750  0.958  0.833- 557 1.55 523 1.55 467 1.55 515 1.55
 184  0.917  0.208  0.333- 468 1.55 566 1.55 476 1.55 516 1.55
 185  0.917  0.208  0.833- 469 1.55 477 1.55 517 1.55 567 1.55
 186  0.917  0.458  0.333- 478 1.55 470 1.55 518 1.55 568 1.55
 187  0.917  0.458  0.833- 471 1.55 479 1.55 569 1.55 519 1.55
 188  0.917  0.708  0.333- 472 1.55 480 1.55 520 1.55 570 1.55
 189  0.917  0.708  0.833- 481 1.55 473 1.55 571 1.55 521 1.55
 190  0.917  0.958  0.333- 474 1.55 564 1.55 522 1.55 482 1.55
 191  0.917  0.958  0.833- 523 1.55 483 1.55 475 1.55 565 1.55
 192  0.000  0.167  0.167- 476 1.55 332 1.55 287 1.55 372 1.55
 193  0.000  0.167  0.667- 333 1.55 288 1.55 373 1.55 477 1.55
 194  0.000  0.417  0.167- 334 1.55 478 1.55 289 1.55 374 1.55
 195  0.000  0.417  0.667- 479 1.55 335 1.55 375 1.55 290 1.55
 196  1.000  0.667  0.167- 336 1.55 480 1.55 291 1.55 376 1.55
 197  1.000  0.667  0.667- 337 1.54 377 1.54 292 1.55 481 1.55
 198  1.000  0.917  0.167- 482 1.55 338 1.55 285 1.55 378 1.55
 199  1.000  0.917  0.667- 339 1.55 379 1.55 286 1.55 483 1.55
 200  0.167  0.167  0.167- 484 1.55 295 1.55 340 1.55 332 1.55
 201  0.167  0.167  0.667- 485 1.55 333 1.55 341 1.55 296 1.55
 202  0.167  0.417  0.167- 297 1.55 342 1.55 334 1.55 486 1.55
 203  0.167  0.417  0.667- 487 1.55 335 1.55 298 1.55 343 1.55
 204  0.167  0.667  0.167- 488 1.55 344 1.55 299 1.55 336 1.55
 205  0.166  0.667  0.667- 345 1.54 337 1.55 300 1.55 489 1.55
 206  0.167  0.917  0.167- 490 1.55 293 1.55 346 1.55 338 1.55
 207  0.167  0.917  0.667- 294 1.55 347 1.55 339 1.55 491 1.55
 208  0.333  0.167  0.167- 492 1.55 340 1.55 303 1.55 348 1.55
 209  0.333  0.166  0.667- 304 1.54 341 1.54 493 1.55 349 1.55
 210  0.333  0.417  0.167- 342 1.55 494 1.55 305 1.55 350 1.55
 211  0.334  0.417  0.667- 495 1.54 351 1.55 343 1.55 306 1.56
 212  0.333  0.667  0.167- 307 1.55 344 1.55 496 1.55 352 1.55
 213  0.333  0.667  0.667- 308 1.54 353 1.55 345 1.55 497 1.55
 214  0.333  0.917  0.167- 498 1.55 301 1.55 346 1.55 354 1.55
 215  0.333  0.917  0.667- 302 1.55 347 1.55 499 1.55 355 1.55
 216  0.500  0.167  0.167- 500 1.55 311 1.55 348 1.55 356 1.55
 217  0.500  0.166  0.667- 312 1.54 349 1.55 357 1.55 501 1.55
 218  0.500  0.417  0.167- 350 1.55 313 1.55 358 1.55 502 1.55
 219  0.500  0.667  0.166- 504 1.54 314 1.54 352 1.55 360 1.55
 220  0.500  0.665  0.667- 505 1.54 361 1.55 315 1.56 353 1.56
 221  0.500  0.917  0.167- 309 1.55 354 1.55 506 1.55 362 1.55
 222  0.500  0.917  0.667- 310 1.55 363 1.55 355 1.55 507 1.55
 223  0.667  0.167  0.167- 508 1.55 364 1.55 318 1.55 356 1.55
 224  0.667  0.166  0.667- 319 1.54 365 1.54 509 1.55 357 1.55
 225  0.667  0.417  0.166- 510 1.54 366 1.54 358 1.55 320 1.55
 226  0.666  0.417  0.666- 511 1.54 367 1.55 359 1.55 321 1.56
 227  0.667  0.667  0.166- 322 1.55 368 1.55 512 1.55 360 1.55
 228  0.667  0.668  0.666- 323 1.54 513 1.55 369 1.55 361 1.55
 229  0.667  0.917  0.167- 316 1.55 514 1.55 370 1.55 362 1.55
 230  0.667  0.917  0.667- 317 1.55 515 1.55 371 1.55 363 1.55
 231  0.833  0.167  0.167- 516 1.55 372 1.55 326 1.55 364 1.55
 232  0.833  0.167  0.667- 373 1.55 517 1.55 365 1.55 327 1.55
 233  0.833  0.417  0.167- 374 1.55 518 1.55 328 1.55 366 1.55
 234  0.833  0.417  0.667- 519 1.55 375 1.55 329 1.55 367 1.55
 235  0.833  0.667  0.167- 520 1.55 376 1.55 330 1.55 368 1.55
 236  0.833  0.667  0.667- 369 1.55 377 1.55 331 1.55 521 1.55
 237  0.833  0.917  0.167- 522 1.55 324 1.55 378 1.55 370 1.55
 238  0.833  0.917  0.667- 325 1.54 371 1.55 379 1.55 523 1.55
 239  0.083  0.042  0.167- 524 1.55 293 1.55 332 1.55 285 1.55
 240  0.083  0.042  0.667- 294 1.55 525 1.55 286 1.55 333 1.55
 241  0.083  0.292  0.167- 295 1.55 334 1.55 526 1.55 287 1.55
 242  0.083  0.292  0.667- 296 1.55 527 1.55 335 1.55 288 1.55
 243  0.083  0.542  0.167- 528 1.55 297 1.55 336 1.55 289 1.55
 244  0.083  0.542  0.667- 298 1.54 290 1.54 529 1.55 337 1.55
 245  0.083  0.792  0.167- 299 1.55 530 1.55 338 1.55 291 1.55
 246  0.083  0.792  0.667- 300 1.54 339 1.55 292 1.55 531 1.55
 247  0.250  0.042  0.167- 532 1.55 340 1.55 293 1.55 301 1.55
 248  0.250  0.042  0.667- 341 1.55 294 1.55 533 1.55 302 1.55
 249  0.250  0.292  0.167- 303 1.55 342 1.55 534 1.55 295 1.55
 250  0.250  0.292  0.667- 535 1.55 304 1.55 296 1.55 343 1.55
 251  0.250  0.542  0.167- 297 1.55 344 1.55 536 1.55 305 1.55
 252  0.249  0.542  0.667- 298 1.54 306 1.54 537 1.55 345 1.55
 253  0.250  0.792  0.167- 538 1.55 346 1.55 299 1.55 307 1.55
 254  0.250  0.792  0.667- 308 1.54 347 1.54 300 1.55 539 1.55
 255  0.417  0.042  0.167- 348 1.55 540 1.55 301 1.55 309 1.55
 256  0.417  0.042  0.667- 349 1.55 302 1.55 541 1.55 310 1.55
 257  0.417  0.292  0.167- 303 1.55 311 1.55 542 1.55 350 1.55
 258  0.416  0.291  0.667- 304 1.54 351 1.54 543 1.55 312 1.55
 259  0.417  0.542  0.167- 305 1.55 352 1.55 313 1.55 544 1.55
 260  0.417  0.792  0.167- 307 1.55 354 1.55 314 1.55 546 1.55
 261  0.417  0.792  0.667- 308 1.55 547 1.55 355 1.55 315 1.55
 262  0.583  0.042  0.167- 356 1.55 548 1.55 316 1.55 309 1.55
 263  0.583  0.042  0.667- 357 1.55 317 1.55 549 1.55 310 1.55
 264  0.583  0.292  0.167- 318 1.55 550 1.55 311 1.55 358 1.55
 265  0.584  0.291  0.667- 359 1.54 319 1.54 551 1.55 312 1.55
 266  0.583  0.542  0.166- 552 1.55 360 1.55 320 1.55 313 1.55
 267  0.583  0.792  0.167- 362 1.55 554 1.55 322 1.55 314 1.55
 268  0.583  0.791  0.667- 555 1.55 323 1.55 363 1.55 315 1.55
 269  0.750  0.042  0.167- 556 1.55 364 1.55 324 1.55 316 1.55
 270  0.750  0.042  0.667- 365 1.55 325 1.55 557 1.55 317 1.55
 271  0.750  0.292  0.167- 326 1.55 318 1.55 558 1.55 366 1.55
 272  0.750  0.292  0.667- 327 1.55 559 1.55 319 1.55 367 1.55
 273  0.750  0.542  0.166- 560 1.55 328 1.55 368 1.55 320 1.55
 274  0.751  0.541  0.666- 329 1.54 561 1.55 369 1.55 321 1.55
 275  0.750  0.792  0.167- 562 1.55 370 1.55 330 1.55 322 1.55
 276  0.750  0.792  0.667- 323 1.54 371 1.54 563 1.55 331 1.55
 277  0.917  0.042  0.167- 564 1.55 372 1.55 285 1.55 324 1.55
 278  0.917  0.042  0.667- 373 1.55 325 1.55 286 1.55 565 1.55
 279  0.917  0.292  0.167- 287 1.55 566 1.55 374 1.55 326 1.55
 280  0.917  0.292  0.667- 567 1.55 288 1.55 327 1.55 375 1.55
 281  0.917  0.542  0.167- 568 1.55 289 1.55 376 1.55 328 1.55
 282  0.917  0.542  0.667- 329 1.54 290 1.54 569 1.55 377 1.55
 283  0.917  0.792  0.167- 570 1.55 291 1.55 378 1.55 330 1.55
 284  0.917  0.792  0.667- 331 1.55 292 1.55 379 1.55 571 1.55
 285  0.000  0.000  0.125-   1 1.55 277 1.55 198 1.55 239 1.55
 286  0.000  0.000  0.625- 278 1.55 199 1.55   2 1.55 240 1.55
 287  0.000  0.250  0.125-   3 1.55 279 1.55 192 1.55 241 1.55
 288  0.000  0.250  0.625-   4 1.55 280 1.55 193 1.55 242 1.55
 289  0.000  0.500  0.125-   5 1.55 281 1.55 194 1.55 243 1.55
 290  0.000  0.500  0.625- 282 1.54 244 1.54   6 1.55 195 1.55
 291  1.000  0.750  0.125-   7 1.55 283 1.55 196 1.55 245 1.55
 292  1.000  0.750  0.625- 284 1.55 246 1.55   8 1.55 197 1.55
 293  0.167  1.000  0.125-   9 1.55 239 1.55 206 1.55 247 1.55
 294  0.167  1.000  0.625- 207 1.55 248 1.55 240 1.55  10 1.55
 295  0.167  0.250  0.125-  11 1.55 241 1.55 200 1.55 249 1.55
 296  0.167  0.250  0.625-  12 1.55 242 1.55 250 1.55 201 1.55
 297  0.167  0.500  0.125-  13 1.55 243 1.55 202 1.55 251 1.55
 298  0.166  0.500  0.625- 252 1.54 244 1.54  14 1.55 203 1.55
 299  0.167  0.750  0.125-  15 1.55 245 1.55 253 1.55 204 1.55
 300  0.166  0.750  0.625- 246 1.54 205 1.55  16 1.55 254 1.55
 301  0.333  1.000  0.125-  17 1.55 214 1.55 255 1.55 247 1.55
 302  0.333  1.000  0.625- 215 1.55 256 1.55  18 1.55 248 1.55
 303  0.333  0.250  0.125-  19 1.55 257 1.55 249 1.55 208 1.55
 304  0.333  0.249  0.625- 258 1.54 209 1.54  20 1.55 250 1.55
 305  0.333  0.500  0.125-  21 1.55 259 1.55 210 1.55 251 1.55
 306  0.333  0.502  0.627- 576 1.48 252 1.54  22 1.56 211 1.56
 307  0.333  0.750  0.125-  23 1.55 260 1.55 212 1.55 253 1.55
 308  0.333  0.750  0.625- 213 1.54 254 1.54 261 1.55  24 1.55
 309  0.500  1.000  0.125- 221 1.55  25 1.55 262 1.55 255 1.55
 310  0.500  1.000  0.625- 222 1.55  26 1.55 256 1.55 263 1.55
 311  0.500  0.250  0.125-  27 1.54 216 1.55 264 1.55 257 1.55
 312  0.500  0.250  0.625- 217 1.54  28 1.55 265 1.55 258 1.55
 313  0.500  0.500  0.125- 266 1.55 218 1.55 259 1.55  29 1.55
 314  0.500  0.750  0.125- 219 1.54  30 1.54 260 1.55 267 1.55
 315  0.500  0.749  0.625-  31 1.54 261 1.55 268 1.55 220 1.56
 316  0.667  1.000  0.125-  32 1.55 229 1.55 262 1.55 269 1.55
 317  0.667  1.000  0.625- 263 1.55  33 1.55 230 1.55 270 1.55
 318  0.667  0.250  0.125-  34 1.55 264 1.55 223 1.55 271 1.55
 319  0.667  0.249  0.625- 265 1.54 224 1.54  35 1.55 272 1.55
 320  0.667  0.500  0.125-  36 1.55 266 1.55 225 1.55 273 1.55
 321  0.666  0.501  0.625- 575 1.49  37 1.55 274 1.55 226 1.56
 322  0.667  0.750  0.125- 227 1.55  38 1.55 267 1.55 275 1.55
 323  0.667  0.750  0.625- 228 1.54 276 1.54  39 1.55 268 1.55
 324  0.833  1.000  0.125-  40 1.55 237 1.55 269 1.55 277 1.55
 325  0.833  1.000  0.625- 238 1.54 270 1.55 278 1.55  41 1.55
 326  0.833  0.250  0.125- 271 1.55  42 1.55 231 1.55 279 1.55
 327  0.833  0.250  0.625- 272 1.55  43 1.55 280 1.55 232 1.55
 328  0.833  0.500  0.125-  44 1.55 273 1.55 233 1.55 281 1.55
 329  0.834  0.500  0.625- 274 1.54 282 1.54  45 1.55 234 1.55
 330  0.833  0.750  0.125-  46 1.55 275 1.55 235 1.55 283 1.55
 331  0.833  0.750  0.625- 284 1.55  47 1.55 236 1.55 276 1.55
 332  0.083  0.125  0.125-  48 1.55 192 1.55 239 1.55 200 1.55
 333  0.083  0.125  0.625- 193 1.55  49 1.55 240 1.55 201 1.55
 334  0.083  0.375  0.125- 194 1.55 241 1.55  50 1.55 202 1.55
 335  0.083  0.375  0.625-  51 1.55 242 1.55 203 1.55 195 1.55
 336  0.083  0.625  0.125-  52 1.55 196 1.55 243 1.55 204 1.55
 337  0.083  0.625  0.625- 197 1.54 205 1.55  53 1.55 244 1.55
 338  0.083  0.875  0.125-  54 1.55 198 1.55 245 1.55 206 1.55
 339  0.083  0.875  0.625- 199 1.55 246 1.55 207 1.55  55 1.55
 340  0.250  0.125  0.125-  56 1.55 247 1.55 200 1.55 208 1.55
 341  0.250  0.125  0.625- 209 1.54 248 1.55  57 1.55 201 1.55
 342  0.250  0.375  0.125- 210 1.55  58 1.55 202 1.55 249 1.55
 343  0.250  0.376  0.625-  59 1.54 203 1.55 250 1.55 211 1.55
 344  0.250  0.625  0.125-  60 1.54 204 1.55 212 1.55 251 1.55
 345  0.249  0.625  0.625- 205 1.54  61 1.55 213 1.55 252 1.55
 346  0.250  0.875  0.125-  62 1.55 253 1.55 214 1.55 206 1.55
 347  0.250  0.875  0.625- 254 1.54 207 1.55 215 1.55  63 1.55
 348  0.417  0.125  0.125-  64 1.55 255 1.55 216 1.55 208 1.55
 349  0.417  0.125  0.625- 256 1.55 217 1.55  65 1.55 209 1.55
 350  0.417  0.375  0.125- 218 1.55 210 1.55  66 1.55 257 1.55
 351  0.417  0.374  0.626- 572 1.52 258 1.54  67 1.55 211 1.55
 352  0.417  0.625  0.125-  68 1.55 219 1.55 259 1.55 212 1.55
 353  0.415  0.624  0.627- 576 1.48 213 1.55 220 1.56  69 1.56
 354  0.417  0.875  0.125- 221 1.55 260 1.55 214 1.55  70 1.55
 355  0.417  0.875  0.625-  71 1.55 222 1.55 261 1.55 215 1.55
 356  0.583  0.125  0.125-  72 1.55 262 1.55 223 1.55 216 1.55
 357  0.583  0.125  0.625- 263 1.55  73 1.55 217 1.55 224 1.55
 358  0.583  0.375  0.125-  74 1.55 225 1.55 218 1.55 264 1.55
 359  0.583  0.374  0.626- 572 1.52 265 1.54 226 1.55  75 1.55
 360  0.583  0.625  0.124- 266 1.55 219 1.55  76 1.55 227 1.55
 361  0.584  0.624  0.625- 575 1.49  77 1.55 220 1.55 228 1.55
 362  0.583  0.875  0.125- 267 1.55  78 1.55 221 1.55 229 1.55
 363  0.583  0.875  0.625-  79 1.55 222 1.55 268 1.55 230 1.55
 364  0.750  0.125  0.125-  80 1.55 269 1.55 223 1.55 231 1.55
 365  0.750  0.125  0.625- 224 1.54 270 1.55  81 1.55 232 1.55
 366  0.750  0.375  0.125- 225 1.54  82 1.54 271 1.55 233 1.55
 367  0.750  0.375  0.625-  83 1.55 234 1.55 226 1.55 272 1.55
 368  0.750  0.625  0.125-  84 1.54 227 1.55 273 1.55 235 1.55
 369  0.750  0.625  0.625- 236 1.55  85 1.55 228 1.55 274 1.55
 370  0.750  0.875  0.125-  86 1.55 275 1.55 229 1.55 237 1.55
 371  0.750  0.875  0.625- 276 1.54 238 1.55 230 1.55  87 1.55
 372  0.917  0.125  0.125-  88 1.55 277 1.55 231 1.55 192 1.55
 373  0.917  0.125  0.625- 278 1.55 232 1.55  89 1.55 193 1.55
 374  0.917  0.375  0.125- 233 1.55  90 1.55 279 1.55 194 1.55
 375  0.917  0.375  0.625- 234 1.55  91 1.55 280 1.55 195 1.55
 376  0.917  0.625  0.125-  92 1.55 235 1.55 281 1.55 196 1.55
 377  0.917  0.625  0.625- 197 1.54 236 1.55  93 1.55 282 1.55
 378  0.917  0.875  0.125-  94 1.55 237 1.55 283 1.55 198 1.55
 379  0.917  0.875  0.625- 199 1.55 238 1.55 284 1.55  95 1.55
 380  0.000  0.083  0.458-  96 1.55  89 1.55   2 1.55  49 1.55
 381  0.000  0.083  0.958-  88 1.55   1 1.55  97 1.55  48 1.55
 382  0.000  0.333  0.458-  98 1.55  91 1.55   4 1.55  51 1.55
 383  0.000  0.333  0.958-  90 1.55  99 1.55   3 1.55  50 1.55
 384  0.000  0.583  0.458-  53 1.55  93 1.55 100 1.55   6 1.55
 385  1.000  0.583  0.958-  92 1.55 101 1.55  52 1.55   5 1.55
 386  0.000  0.833  0.458-  95 1.55 102 1.55  55 1.55   8 1.55
 387  1.000  0.833  0.958-  94 1.55 103 1.55  54 1.55   7 1.55
 388  0.167  0.083  0.458- 104 1.55  57 1.55  49 1.55  10 1.55
 389  0.167  0.083  0.958-   9 1.55 105 1.55  56 1.55  48 1.55
 390  0.167  0.334  0.459- 106 1.55  51 1.55  12 1.55  59 1.55
 391  0.167  0.333  0.958- 107 1.55  58 1.55  50 1.55  11 1.55
 392  0.167  0.583  0.458-  61 1.55  14 1.55 108 1.55  53 1.55
 393  0.166  0.583  0.959-  52 1.54 109 1.55  13 1.55  60 1.55
 394  0.167  0.833  0.458- 110 1.55  16 1.55  63 1.55  55 1.55
 395  0.167  0.833  0.958-  54 1.55 111 1.55  15 1.55  62 1.55
 396  0.333  0.083  0.458- 112 1.55  65 1.55  57 1.55  18 1.55
 397  0.333  0.083  0.958-  17 1.55 113 1.55  64 1.55  56 1.55
 398  0.334  0.334  0.459-  59 1.55 114 1.55  20 1.55  67 1.55
 399  0.333  0.333  0.958- 115 1.54  66 1.55  58 1.55  19 1.55
 400  0.334  0.583  0.459-  69 1.54  22 1.54 116 1.55  61 1.55
 401  0.333  0.584  0.959- 117 1.54  60 1.54  68 1.55  21 1.55
 402  0.333  0.833  0.458- 118 1.55  71 1.55  24 1.55  63 1.55
 403  0.333  0.833  0.958-  23 1.55 119 1.55  62 1.55  70 1.55
 404  0.500  0.083  0.458- 120 1.55  26 1.55  73 1.55  65 1.55
 405  0.500  0.083  0.958-  25 1.55 121 1.55  72 1.55  64 1.55
 406  0.500  0.334  0.459-  75 1.54  67 1.54 122 1.55  28 1.55
 407  0.500  0.333  0.959- 123 1.54  27 1.54  74 1.55  66 1.55
 408  0.501  0.583  0.458- 574 1.49  77 1.55  69 1.55 124 1.55
 409  0.500  0.583  0.957-  29 1.54  68 1.55  76 1.55 125 1.56
 410  0.500  0.833  0.458-  71 1.55 126 1.55  79 1.55  31 1.55
 411  0.500  0.833  0.958-  30 1.55 127 1.55  70 1.55  78 1.55
 412  0.667  0.083  0.458- 128 1.55  73 1.55  33 1.55  81 1.55
 413  0.667  0.083  0.958-  32 1.55 129 1.55  72 1.55  80 1.55
 414  0.666  0.334  0.458-  83 1.55 130 1.55  75 1.55  35 1.55
 415  0.667  0.333  0.958- 131 1.55  74 1.55  82 1.55  34 1.55
 416  0.667  0.583  0.458-  37 1.54  77 1.55 132 1.55  85 1.55
 417  0.667  0.583  0.958- 133 1.54  76 1.55  84 1.55  36 1.55
 418  0.667  0.833  0.458-  39 1.54 134 1.55  79 1.55  87 1.55
 419  0.667  0.833  0.958- 135 1.55  38 1.55  78 1.55  86 1.55
 420  0.833  0.083  0.458-  81 1.55  41 1.55 136 1.55  89 1.55
 421  0.833  0.083  0.958-  40 1.55 137 1.55  80 1.55  88 1.55
 422  0.833  0.333  0.458- 138 1.55  43 1.55  83 1.55  91 1.55
 423  0.833  0.333  0.958-  82 1.55 139 1.55  42 1.55  90 1.55
 424  0.833  0.583  0.458-  85 1.55 140 1.55  93 1.55  45 1.55
 425  0.833  0.583  0.958- 141 1.55  84 1.55  44 1.55  92 1.55
 426  0.833  0.833  0.458-  47 1.55 142 1.55  87 1.55  95 1.55
 427  0.833  0.833  0.958- 143 1.55  86 1.55  46 1.55  94 1.55
 428  0.083  0.208  0.458- 144 1.55   4 1.55  49 1.55  12 1.55
 429  0.083  0.208  0.958-  48 1.55  11 1.55 145 1.55   3 1.55
 430  0.084  0.458  0.458- 146 1.55  51 1.55   6 1.55  14 1.55
 431  0.083  0.458  0.958- 147 1.55   5 1.55  13 1.55  50 1.55
 432  0.083  0.708  0.458- 148 1.55  16 1.55   8 1.55  53 1.55
 433  0.083  0.708  0.958-   7 1.55 149 1.55  15 1.55  52 1.55
 434  0.083  0.958  0.458- 150 1.55  10 1.55  55 1.55   2 1.55
 435  0.083  0.958  0.958-   1 1.55   9 1.55  54 1.55 151 1.55
 436  0.250  0.208  0.458- 152 1.55  12 1.55  20 1.55  57 1.55
 437  0.250  0.208  0.958- 153 1.55  19 1.55  56 1.55  11 1.55
 438  0.251  0.459  0.459-  59 1.54  14 1.55 154 1.55  22 1.56
 439  0.250  0.458  0.958- 155 1.54  21 1.55  13 1.55  58 1.55
 440  0.250  0.708  0.458-  61 1.55  24 1.55 156 1.55  16 1.55
 441  0.250  0.708  0.959-  15 1.54 157 1.55  23 1.55  60 1.55
 442  0.250  0.958  0.458- 158 1.55  18 1.55  63 1.55  10 1.55
 443  0.250  0.958  0.958-  62 1.55 159 1.55  17 1.55   9 1.55
 444  0.417  0.208  0.458- 160 1.55  28 1.55  20 1.55  65 1.55
 445  0.417  0.208  0.959-  64 1.55 161 1.55  19 1.55  27 1.55
 446  0.419  0.459  0.460- 574 1.51  22 1.55  67 1.55 162 1.57
 447  0.417  0.459  0.958-  29 1.55  21 1.55  66 1.55 163 1.55
 448  0.417  0.708  0.459-  31 1.54  24 1.55 164 1.55  69 1.56
 449  0.417  0.708  0.958- 165 1.55  68 1.55  30 1.55  23 1.55
 450  0.417  0.958  0.458- 166 1.55  18 1.55  26 1.55  71 1.55
 451  0.417  0.958  0.958-  70 1.55 167 1.55  17 1.55  25 1.55
 452  0.583  0.208  0.458- 168 1.55  35 1.55  28 1.55  73 1.55
 453  0.583  0.208  0.958-  72 1.55 169 1.55  34 1.55  27 1.55
 454  0.583  0.459  0.458- 574 1.49  37 1.55 170 1.55  75 1.56
 455  0.583  0.458  0.958-  29 1.55  36 1.55  74 1.55 171 1.55
 456  0.583  0.708  0.458-  77 1.54  39 1.55  31 1.55 172 1.55
 457  0.583  0.708  0.958- 173 1.55  76 1.55  30 1.55  38 1.55
 458  0.583  0.958  0.458- 174 1.55  33 1.55  79 1.55  26 1.55
 459  0.583  0.958  0.958-  78 1.55 175 1.55  32 1.55  25 1.55
 460  0.750  0.208  0.458-  35 1.55 176 1.55  43 1.55  81 1.55
 461  0.750  0.208  0.958- 177 1.55  80 1.55  34 1.55  42 1.55
 462  0.750  0.458  0.458-  37 1.54  83 1.55 178 1.55  45 1.55
 463  0.750  0.458  0.958- 179 1.55  36 1.55  82 1.55  44 1.55
 464  0.750  0.708  0.458-  85 1.55 180 1.55  47 1.55  39 1.55
 465  0.750  0.708  0.958- 181 1.55  38 1.55  84 1.55  46 1.55
 466  0.750  0.958  0.458-  87 1.55 182 1.55  33 1.55  41 1.55
 467  0.750  0.958  0.958-  86 1.55 183 1.55  32 1.55  40 1.55
 468  0.917  0.208  0.458- 184 1.55  43 1.55  89 1.55   4 1.55
 469  0.917  0.208  0.958-  42 1.55 185 1.55  88 1.55   3 1.55
 470  0.917  0.458  0.458-  45 1.54 186 1.55  91 1.55   6 1.55
 471  0.917  0.458  0.958- 187 1.55  44 1.55  90 1.55   5 1.55
 472  0.917  0.708  0.458- 188 1.55  47 1.55   8 1.55  93 1.55
 473  0.917  0.708  0.958-  46 1.55 189 1.55  92 1.55   7 1.55
 474  0.917  0.958  0.458-  41 1.55 190 1.55  95 1.55   2 1.55
 475  0.917  0.958  0.958-  40 1.55 191 1.55  94 1.55   1 1.55
 476  0.000  0.167  0.292- 192 1.55  96 1.55 184 1.55 144 1.55
 477  0.000  0.167  0.792-  97 1.55 193 1.55 185 1.55 145 1.55
 478  0.000  0.417  0.292- 186 1.55 194 1.55  98 1.55 146 1.55
 479  1.000  0.417  0.792- 195 1.55 187 1.55 147 1.55  99 1.55
 480  0.000  0.667  0.292- 196 1.55 188 1.55 100 1.55 148 1.55
 481  1.000  0.667  0.792- 189 1.55 149 1.55 197 1.55 101 1.55
 482  0.000  0.917  0.292- 198 1.55 102 1.55 190 1.55 150 1.55
 483  1.000  0.917  0.792- 191 1.55 103 1.55 199 1.55 151 1.55
 484  0.167  0.167  0.292- 200 1.55 144 1.55 104 1.55 152 1.55
 485  0.167  0.167  0.792- 153 1.55 201 1.55 145 1.55 105 1.55
 486  0.167  0.417  0.292- 146 1.55 106 1.55 202 1.55 154 1.55
 487  0.167  0.417  0.792- 155 1.55 203 1.55 147 1.55 107 1.55
 488  0.167  0.667  0.292- 204 1.55 148 1.55 156 1.55 108 1.55
 489  0.166  0.667  0.792- 149 1.54 157 1.55 205 1.55 109 1.55
 490  0.167  0.917  0.292- 206 1.55 150 1.55 158 1.55 110 1.55
 491  0.167  0.917  0.792- 151 1.55 111 1.55 159 1.55 207 1.55
 492  0.333  0.167  0.292- 208 1.55 160 1.55 152 1.55 112 1.55
 493  0.333  0.166  0.792- 113 1.54 161 1.55 153 1.55 209 1.55
 494  0.334  0.417  0.292- 162 1.54 210 1.55 154 1.55 114 1.55
 495  0.333  0.417  0.792- 211 1.54 163 1.54 115 1.55 155 1.55
 496  0.333  0.667  0.292- 164 1.55 116 1.55 156 1.55 212 1.55
 497  0.333  0.667  0.792- 157 1.54 165 1.55 213 1.55 117 1.55
 498  0.333  0.917  0.292- 214 1.55 166 1.55 118 1.55 158 1.55
 499  0.333  0.917  0.792- 119 1.55 215 1.55 167 1.55 159 1.55
 500  0.500  0.167  0.292- 216 1.55 120 1.55 168 1.55 160 1.55
 501  0.500  0.166  0.792- 121 1.55 217 1.55 169 1.55 161 1.55
 502  0.500  0.417  0.292- 122 1.55 218 1.55 170 1.55 162 1.55
 503  0.500  0.415  0.792- 572 1.52 123 1.54 171 1.55 163 1.55
 504  0.500  0.667  0.291- 124 1.54 219 1.54 172 1.55 164 1.55
 505  0.500  0.666  0.791- 220 1.54 125 1.54 173 1.55 165 1.55
 506  0.500  0.917  0.292- 221 1.55 166 1.55 126 1.55 174 1.55
 507  0.500  0.917  0.792- 127 1.55 222 1.55 167 1.55 175 1.55
 508  0.667  0.167  0.292- 223 1.55 168 1.55 128 1.55 176 1.55
 509  0.667  0.166  0.792- 129 1.55 169 1.55 177 1.55 224 1.55
 510  0.667  0.417  0.291- 170 1.54 225 1.54 178 1.55 130 1.55
 511  0.666  0.417  0.791- 226 1.54 171 1.54 179 1.55 131 1.55
 512  0.667  0.667  0.291- 132 1.55 172 1.55 227 1.55 180 1.55
 513  0.667  0.667  0.791- 173 1.55 181 1.55 228 1.55 133 1.55
 514  0.667  0.917  0.292- 134 1.55 229 1.55 174 1.55 182 1.55
 515  0.667  0.917  0.792- 135 1.55 230 1.55 175 1.55 183 1.55
 516  0.833  0.167  0.292- 176 1.55 231 1.55 136 1.55 184 1.55
 517  0.833  0.167  0.792- 177 1.55 137 1.55 232 1.55 185 1.55
 518  0.833  0.417  0.292- 178 1.54 233 1.55 186 1.55 138 1.55
 519  0.833  0.417  0.792- 234 1.55 179 1.55 139 1.55 187 1.55
 520  0.833  0.667  0.292- 235 1.55 180 1.55 188 1.55 140 1.55
 521  0.833  0.667  0.792- 181 1.55 189 1.55 236 1.55 141 1.55
 522  0.833  0.917  0.292- 237 1.55 142 1.55 182 1.55 190 1.55
 523  0.833  0.917  0.792- 183 1.55 143 1.55 191 1.55 238 1.55
 524  0.083  0.042  0.292- 239 1.55 104 1.55 150 1.55  96 1.55
 525  0.083  0.042  0.792- 105 1.55 151 1.55 240 1.55  97 1.55
 526  0.083  0.292  0.292-  98 1.55 241 1.55 144 1.55 106 1.55
 527  0.083  0.292  0.792- 107 1.55 242 1.55 145 1.55  99 1.55
 528  0.083  0.542  0.292- 243 1.55 100 1.55 146 1.55 108 1.55
 529  0.083  0.542  0.792- 101 1.54 109 1.55 147 1.55 244 1.55
 530  0.083  0.792  0.292- 245 1.55 110 1.55 102 1.55 148 1.55
 531  0.083  0.792  0.792- 103 1.55 111 1.55 149 1.55 246 1.55
 532  0.250  0.042  0.292- 247 1.55 112 1.55 104 1.55 158 1.55
 533  0.250  0.042  0.792- 159 1.55 113 1.55 248 1.55 105 1.55
 534  0.250  0.292  0.292- 106 1.55 152 1.55 249 1.55 114 1.55
 535  0.250  0.292  0.792- 115 1.54 250 1.55 107 1.55 153 1.55
 536  0.250  0.542  0.292- 154 1.55 116 1.55 251 1.55 108 1.55
 537  0.249  0.542  0.792- 109 1.54 155 1.55 252 1.55 117 1.55
 538  0.250  0.792  0.292- 253 1.55 118 1.55 156 1.55 110 1.55
 539  0.250  0.792  0.792- 111 1.55 157 1.55 119 1.55 254 1.55
 540  0.417  0.042  0.292- 255 1.55 166 1.55 112 1.55 120 1.55
 541  0.417  0.042  0.792- 167 1.55 256 1.55 121 1.55 113 1.55
 542  0.417  0.292  0.292- 114 1.55 122 1.55 257 1.55 160 1.55
 543  0.416  0.291  0.792- 161 1.54 115 1.55 258 1.55 123 1.55
 544  0.417  0.542  0.292- 116 1.55 259 1.55 124 1.55 162 1.55
 545  0.415  0.542  0.790- 576 1.48 117 1.54 125 1.56 163 1.56
 546  0.417  0.792  0.292- 118 1.55 126 1.55 164 1.55 260 1.55
 547  0.417  0.792  0.792- 165 1.55 261 1.55 127 1.55 119 1.55
 548  0.583  0.042  0.292- 262 1.55 174 1.55 128 1.55 120 1.55
 549  0.583  0.042  0.792- 175 1.55 263 1.55 129 1.55 121 1.55
 550  0.583  0.292  0.292- 130 1.55 264 1.55 122 1.55 168 1.55
 551  0.583  0.291  0.792- 169 1.54 131 1.55 265 1.55 123 1.55
 552  0.584  0.542  0.291- 266 1.55 132 1.55 170 1.55 124 1.55
 553  0.583  0.541  0.789- 575 1.51 125 1.55 171 1.55 133 1.57
 554  0.583  0.792  0.292- 172 1.54 267 1.55 134 1.55 126 1.55
 555  0.583  0.791  0.792- 268 1.55 173 1.55 127 1.55 135 1.55
 556  0.750  0.042  0.292- 269 1.55 182 1.55 128 1.55 136 1.55
 557  0.750  0.042  0.792- 183 1.55 129 1.55 270 1.55 137 1.55
 558  0.750  0.292  0.292- 130 1.55 176 1.55 271 1.55 138 1.55
 559  0.750  0.292  0.792- 272 1.55 131 1.55 139 1.55 177 1.55
 560  0.750  0.542  0.291- 132 1.55 273 1.55 140 1.55 178 1.55
 561  0.750  0.542  0.791- 179 1.55 141 1.55 274 1.55 133 1.55
 562  0.750  0.792  0.292- 180 1.55 275 1.55 134 1.55 142 1.55
 563  0.750  0.792  0.792- 135 1.55 143 1.55 276 1.55 181 1.55
 564  0.917  0.042  0.292- 277 1.55 136 1.55 190 1.55  96 1.55
 565  0.917  0.042  0.792- 137 1.55 191 1.55 278 1.55  97 1.55
 566  0.917  0.292  0.292- 138 1.55 279 1.55 184 1.55  98 1.55
 567  0.917  0.292  0.792- 139 1.55 280 1.55 185 1.55  99 1.55
 568  0.917  0.542  0.292- 140 1.55 281 1.55 186 1.55 100 1.55
 569  0.917  0.542  0.792- 101 1.55 141 1.55 187 1.55 282 1.55
 570  0.917  0.792  0.292- 283 1.55 142 1.55 188 1.55 102 1.55
 571  0.917  0.792  0.792- 143 1.55 284 1.55 103 1.55 189 1.55
 572  0.500  0.411  0.670- 573 1.09 503 1.52 351 1.52 359 1.52
 573  0.501  0.469  0.639- 572 1.09
 574  0.502  0.501  0.492- 408 1.49 454 1.49 446 1.51
 575  0.590  0.545  0.667- 361 1.49 321 1.49 553 1.51
 576  0.409  0.545  0.671- 545 1.48 306 1.48 353 1.48
 
  LATTYP: Found a simple monoclinic cell.
 ALAT       =    12.3703241348
 B/A-ratio  =     1.2248453018
 C/A-ratio  =     1.4141600350
 COS(beta)  =    -0.0000282295
  
  Lattice vectors:
  
 A1 = (   0.0000000000,  -0.0003492082,  12.3703241299)
 A2 = (  15.1517333984,   0.0000000000,   0.0000000000)
 A3 = (   0.0000000000,  17.4936180115,   0.0000000000)


Analysis of symmetry for initial positions (statically):
=====================================================================
 Subroutine PRICEL returns:
 Original cell was already a primitive cell.
 

 Routine SETGRP: Setting up the symmetry group for a 
 simple monoclinic supercell.


 Subroutine GETGRP returns: Found  1 space group operations
 (whereof  1 operations were pure point group operations)
 out of a pool of  4 trial point group operations.


The static configuration has the point symmetry C_1 .


Analysis of symmetry for dynamics (positions and initial velocities):
=====================================================================
 Subroutine PRICEL returns:
 Original cell was already a primitive cell.
 

 Routine SETGRP: Setting up the symmetry group for a 
 simple monoclinic supercell.


 Subroutine GETGRP returns: Found  1 space group operations
 (whereof  1 operations were pure point group operations)
 out of a pool of  4 trial point group operations.


The dynamic configuration has the point symmetry C_1 .


Analysis of structural, dynamic, and magnetic symmetry:
=====================================================================
 Subroutine PRICEL returns:
 Original cell was already a primitive cell.
 

 Routine SETGRP: Setting up the symmetry group for a 
 simple monoclinic supercell.


 Subroutine GETGRP returns: Found  1 space group operations
 (whereof  1 operations were pure point group operations)
 out of a pool of  4 trial point group operations.


The overall configuration has the point symmetry C_1 .


 Subroutine INISYM returns: Found  1 space group operations
 (whereof  1 operations are pure point group operations),
 and found     1 'primitive' translations


----------------------------------------------------------------------------------------

                                     Primitive cell                                     

  volume of cell :    3278.8612

  direct lattice vectors                    reciprocal lattice vectors
    15.151733398  0.000000000  0.000000000     0.065999049  0.000000000  0.000000000
     0.000000000 17.493618012  0.000000000     0.000000000  0.057163704  0.000001614
     0.000000000 -0.000349208 12.370324130     0.000000000  0.000000000  0.080838626

  length of vectors
    15.151733398 17.493618012 12.370324135     0.065999049  0.057163704  0.080838626

  position of ions in fractional coordinates (direct lattice)
     0.999990263  0.000012498  0.000031800
     0.000020741  0.000036738  0.499984804
     0.000014568  0.249995541  0.000017942
     0.000060646  0.250031398  0.500001184
     0.999945810  0.499989511  0.000058436
     0.000117210  0.500002029  0.500024107
     0.999928111  0.750015158  0.000090384
     0.999991746  0.750025182  0.500047829
     0.166642699  0.999985613  0.000055696
     0.166664649  0.999996721  0.500012774
     0.166668897  0.249989104  0.000078682
     0.166782780  0.250103201  0.500088357
     0.166586691  0.500009814  0.000193773
     0.166830204  0.500071981  0.500277962
     0.166551156  0.750047944  0.000190530
     0.166645017  0.750007586  0.500093119
     0.333324614  0.999923828  0.000082896
     0.333341835  0.999931188  0.500045974
     0.333330244  0.249952090  0.000123460
     0.333434732  0.250068522  0.500152695
     0.333227697  0.500051936  0.000017225
     0.334698689  0.500583144  0.501399477
     0.333281739  0.749974333  0.000086609
     0.333348195  0.749886381  0.500205300
     0.499995770  0.999923779  0.000046775
     0.500000250  0.999926540  0.500041027
     0.499973491  0.249778379  0.000436239
     0.500043043  0.250002164  0.500124281
     0.499912381  0.499993636  0.999397674
     0.499965427  0.749988592  0.999818754
     0.500018712  0.749666869  0.500144772
     0.666663596  0.999923819  0.000040269
     0.666659732  0.999920093  0.500028880
     0.666649152  0.249943358  0.000009109
     0.666702917  0.249979007  0.500031247
     0.666589287  0.499993851  0.999614434
     0.666834452  0.500034699  0.499778969
     0.666611014  0.749917264  0.999855035
     0.666727945  0.750062791  0.499900935
     0.833340515  0.999974367  0.000022853
     0.833374989  0.000005999  0.499997411
     0.833346976  0.249975330  0.999961758
     0.833354500  0.250021336  0.499991687
     0.833275884  0.499975296  0.999873354
     0.833533905  0.499983260  0.499887605
     0.833299369  0.749984312  0.000006490
     0.833357258  0.750025781  0.499952263
     0.083333011  0.125002104  0.000030826
     0.083377729  0.125045433  0.500000378
     0.083332250  0.374996839  0.000090763
     0.083467740  0.375045090  0.500084555
     0.083174856  0.625029227  0.000242948
     0.083334752  0.625018166  0.500098194
     0.083275306  0.875022901  0.000086693
     0.083315403  0.875022626  0.500019714
     0.249997805  0.124952231  0.000073851
     0.250024846  0.124991899  0.500040578
     0.249945705  0.374975788  0.000071872
     0.250422883  0.375261518  0.500348886
     0.249713680  0.625101993  0.000505213
     0.250027610  0.625010082  0.500200847
     0.249957059  0.874972657  0.000087971
     0.249988315  0.874955519  0.500052312
     0.416648083  0.124878954  0.000162989
     0.416671998  0.124955613  0.500062642
     0.416623322  0.375031264  0.999743464
     0.417321501  0.375357709  0.500874413
     0.416537210  0.624957685  0.999749527
     0.416946094  0.623898414  0.501001735
     0.416654758  0.874926010  0.000048134
     0.416685722  0.874873007  0.500047967
     0.583337939  0.124887134  0.000127411
     0.583349426  0.124942227  0.500047669
     0.583281528  0.374961662  0.999785457
     0.583146605  0.375256194  0.500424790
     0.583169004  0.624876610  0.999285135
     0.583468547  0.624975046  0.499826324
     0.583312140  0.874935770  0.999952668
     0.583304221  0.874853251  0.500011305
     0.750002087  0.124946226  0.000027774
     0.750035069  0.124943394  0.500011692
     0.750031058  0.374939531  0.999741201
     0.749932019  0.375104819  0.499970112
     0.749975935  0.624987846  0.999990932
     0.750079764  0.625001647  0.499799293
     0.749981206  0.874943187  0.999976050
     0.750041990  0.875024803  0.499966305
     0.916679599  0.124997080  0.000008482
     0.916704347  0.125025195  0.499985603
     0.916676267  0.374975558  0.999933901
     0.916714801  0.375012511  0.499975099
     0.916592397  0.624988734  0.000038934
     0.916716318  0.625004723  0.499964230
     0.916646808  0.875003892  0.000042727
     0.916689763  0.875030021  0.499989601
     0.000033328  0.083362338  0.333329638
     0.999997074  0.083343967  0.833337201
     0.000079375  0.333357737  0.333365762
     0.999981135  0.333314496  0.833326523
     0.000051733  0.583323673  0.333385375
     0.999844448  0.583341261  0.833447227
     0.000003480  0.833341237  0.333367636
     0.999938130  0.833360582  0.833382969
     0.166704460  0.083349622  0.333344590
     0.166659639  0.083306360  0.833353832
     0.166868263  0.333426920  0.333536019
     0.166619641  0.333308326  0.833380292
     0.166773679  0.583319467  0.333501388
     0.166241197  0.583406104  0.833708802
     0.166686454  0.833311847  0.333392547
     0.166545974  0.833400833  0.833444149
     0.333343865  0.083314468  0.333391498
     0.333267412  0.083190726  0.833418351
     0.333515001  0.333476878  0.333570334
     0.333248928  0.333201359  0.833454532
     0.333541964  0.583295029  0.333583300
     0.332346181  0.583661488  0.834585684
     0.333352455  0.833256149  0.333435368
     0.333249936  0.833298718  0.833382161
     0.500007033  0.083294088  0.333420714
     0.499986387  0.083205139  0.833400450
     0.500087386  0.333440689  0.333500670
     0.499843786  0.332679408  0.834604761
     0.500199747  0.584084660  0.332458573
     0.499541676  0.583024928  0.831223427
     0.500015339  0.833208531  0.333412668
     0.499963234  0.833249638  0.833266879
     0.666685237  0.083302022  0.333369187
     0.666701721  0.083196746  0.833387991
     0.666756496  0.333378572  0.333268740
     0.666607534  0.333248035  0.833187401
     0.666790252  0.583350336  0.333142122
     0.666538525  0.583269109  0.833361763
     0.666696151  0.833341528  0.333264721
     0.666631993  0.833230512  0.833240516
     0.833352980  0.083336288  0.333319849
     0.833331182  0.083291671  0.833338360
     0.833360953  0.333346743  0.333305479
     0.833305068  0.333293213  0.833187272
     0.833390611  0.583311921  0.333233466
     0.833221619  0.583275367  0.833236154
     0.833332804  0.833341194  0.333306446
     0.833308164  0.833335515  0.833337130
     0.083410526  0.208388926  0.333385885
     0.083347371  0.208322144  0.833357107
     0.083486182  0.458347716  0.333470469
     0.083241168  0.458331867  0.833452395
     0.083354481  0.708332718  0.333471172
     0.083185046  0.708387525  0.833490308
     0.083363997  0.958344927  0.333350394
     0.083307198  0.958360086  0.833374959
     0.250063547  0.208386269  0.333450760
     0.249969380  0.208273719  0.833416742
     0.250415272  0.458473636  0.333830926
     0.249786495  0.458335218  0.833564014
     0.250062558  0.708297357  0.333498222
     0.249711710  0.708500020  0.833617577
     0.250013376  0.958306504  0.333405174
     0.249952833  0.958282180  0.833411434
     0.416684220  0.208370661  0.333439663
     0.416542694  0.208065701  0.833572152
     0.416590705  0.458292971  0.333361238
     0.416465206  0.458316808  0.831995218
     0.416744142  0.708090686  0.333625263
     0.416533869  0.708288334  0.833294654
     0.416663499  0.958267919  0.333409574
     0.416635814  0.958236353  0.833375062
     0.583373200  0.208347796  0.333414131
     0.583386048  0.208104537  0.833503181
     0.584233304  0.458065520  0.332437772
     0.582952597  0.458168901  0.832213464
     0.583391702  0.708377625  0.333144803
     0.583271934  0.708170628  0.833060670
     0.583349811  0.958266889  0.333390174
     0.583338858  0.958230968  0.833341590
     0.750042259  0.208329577  0.333363841
     0.750004286  0.208264499  0.833340774
     0.750181365  0.458303429  0.333118855
     0.749835291  0.458295294  0.833081815
     0.750009407  0.708340471  0.333240285
     0.749923935  0.708310854  0.833255245
     0.750015854  0.958332918  0.333359030
     0.750001585  0.958256413  0.833367088
     0.916690537  0.208358499  0.333344650
     0.916652261  0.208315125  0.833320131
     0.916765715  0.458314782  0.333279659
     0.916580999  0.458312530  0.833295416
     0.916660614  0.708338991  0.333374672
     0.916553546  0.708327513  0.833346351
     0.916666541  0.958351138  0.333333043
     0.916642506  0.958348152  0.833362505
     0.000031038  0.166694218  0.166679618
     0.000029587  0.166690080  0.666640316
     0.000064392  0.416667653  0.166693962
     0.000008987  0.416664656  0.666675570
     0.999960817  0.666670173  0.166763086
     0.999909147  0.666718595  0.666690777
     0.999993499  0.916680512  0.166696927
     0.999981918  0.916722392  0.666658687
     0.166696413  0.166687864  0.166733411
     0.166704335  0.166697347  0.666699150
     0.166784758  0.416710181  0.166884155
     0.166631769  0.416772705  0.666817114
     0.166610510  0.666688585  0.166939359
     0.166338161  0.666820978  0.666816750
     0.166660851  0.916657978  0.166731978
     0.166571839  0.916722224  0.666694857
     0.333355688  0.166656006  0.166777217
     0.333116995  0.166336466  0.666735395
     0.333311150  0.416670949  0.166646114
     0.334172782  0.417173200  0.667352342
     0.333370087  0.666629473  0.166783973
     0.332606013  0.667395434  0.666885397
     0.333338194  0.916613776  0.166755974
     0.333299021  0.916584918  0.666707963
     0.500004293  0.166606635  0.166846492
     0.499980811  0.166429295  0.666699512
     0.500034281  0.416691058  0.166524476
     0.500007852  0.666847269  0.166184796
     0.499830731  0.665354945  0.666792329
     0.500003674  0.916602212  0.166703512
     0.499975589  0.916549603  0.666637996
     0.666672238  0.166641486  0.166723405
     0.666865957  0.166320560  0.666682160
     0.666926699  0.416569402  0.166169734
     0.666165594  0.416764802  0.666481400
     0.666622511  0.666633744  0.166394866
     0.666988562  0.667515204  0.666165858
     0.666668298  0.916638490  0.166662403
     0.666635133  0.916535994  0.666658837
     0.833359012  0.166669371  0.166673510
     0.833365134  0.166621963  0.666658249
     0.833409157  0.416635515  0.166508347
     0.833349827  0.416677589  0.666546559
     0.833326859  0.666665859  0.166680827
     0.833369058  0.666711006  0.666520431
     0.833332159  0.916664879  0.166671392
     0.833402772  0.916745350  0.666654832
     0.083354979  0.041681942  0.166678912
     0.083343248  0.041706697  0.666653230
     0.083411449  0.291699182  0.166743934
     0.083370082  0.291686416  0.666672247
     0.083361331  0.541666065  0.166795649
     0.083044292  0.541697859  0.666782404
     0.083313834  0.791674705  0.166758482
     0.083239704  0.791743030  0.666719438
     0.250008371  0.041642102  0.166697031
     0.249929904  0.041548983  0.666663430
     0.250067581  0.291699339  0.166778316
     0.250150216  0.291804070  0.666775012
     0.250061090  0.541667559  0.166848072
     0.248670052  0.541792139  0.667072103
     0.249999205  0.791633898  0.166753372
     0.249769301  0.791882268  0.666741935
     0.416654627  0.041605243  0.166753529
     0.416637315  0.041531962  0.666692042
     0.416688402  0.291718159  0.166718450
     0.415963073  0.290753822  0.666825016
     0.416688476  0.541678699  0.166567610
     0.416667455  0.791577098  0.166746345
     0.416569499  0.791500540  0.666674565
     0.583344866  0.041605632  0.166736935
     0.583345798  0.041527904  0.666679938
     0.583366660  0.291677586  0.166682697
     0.583950434  0.290763179  0.666636585
     0.583402244  0.541688809  0.166278332
     0.583343766  0.791653328  0.166545263
     0.583245294  0.791345568  0.666610157
     0.750007755  0.041644617  0.166658920
     0.750057743  0.041524203  0.666656966
     0.750038750  0.291645423  0.166571179
     0.750006317  0.291617008  0.666573179
     0.750016429  0.541646488  0.166474175
     0.750978227  0.541453672  0.666154509
     0.749984505  0.791645741  0.166586534
     0.750138874  0.791952233  0.666549293
     0.916669517  0.041680143  0.166662826
     0.916687661  0.041701246  0.666646588
     0.916692804  0.291675660  0.166647955
     0.916691193  0.291649869  0.666605266
     0.916660712  0.541649612  0.166637546
     0.916917080  0.541634319  0.666586682
     0.916634141  0.791672147  0.166698518
     0.916649090  0.791716804  0.666648442
     0.000004203  0.000015169  0.125005257
     0.000007393  0.000044223  0.624974277
     0.000042048  0.250030787  0.125008261
     0.000038141  0.250022722  0.624973893
     0.000014322  0.500012153  0.125022896
     0.000029834  0.500051354  0.625037527
     0.999962273  0.750011761  0.125063226
     0.999953159  0.750056544  0.625032041
     0.166660409  0.999990682  0.125021312
     0.166602144  0.999985825  0.624996542
     0.166716577  0.250026501  0.125063545
     0.166742354  0.250136147  0.625036635
     0.166697383  0.500026508  0.125154022
     0.166113457  0.500132587  0.625239553
     0.166617111  0.750014985  0.125132456
     0.166492113  0.750120568  0.625088126
     0.333339720  0.999938175  0.125051144
     0.333324675  0.999888421  0.625020836
     0.333377233  0.250005686  0.125071782
     0.333161907  0.249489183  0.625188078
     0.333370858  0.500002855  0.124949534
     0.333257469  0.501750552  0.627114427
     0.333332982  0.749953095  0.125066598
     0.332955373  0.750279206  0.625151620
     0.499999534  0.999931433  0.125039850
     0.499987273  0.999871439  0.625010951
     0.500012841  0.249902343  0.125188213
     0.499993291  0.249621579  0.625108472
     0.500001341  0.500021342  0.124660441
     0.499995659  0.750030039  0.124694409
     0.499678678  0.749239605  0.624988077
     0.666665262  0.999946617  0.125001103
     0.666642587  0.999859968  0.625002700
     0.666666347  0.249973732  0.124966159
     0.666864653  0.249444135  0.625073677
     0.666690972  0.499971620  0.124561964
     0.666496639  0.500622037  0.624738031
     0.666646176  0.749957988  0.124814542
     0.667036264  0.750349234  0.624908404
     0.833346046  0.999989276  0.124984630
     0.833409291  0.999987961  0.624990710
     0.833360575  0.249993402  0.124937251
     0.833347583  0.249994784  0.624964304
     0.833335875  0.499990110  0.124830303
     0.833904888  0.500079537  0.624907919
     0.833331077  0.749992920  0.124964473
     0.833391031  0.750082925  0.624935984
     0.083349940  0.125020783  0.125016447
     0.083351900  0.125050312  0.624987264
     0.083403930  0.375038660  0.125108204
     0.083381096  0.375027254  0.625066604
     0.083273162  0.625027429  0.125180248
     0.083143493  0.625087311  0.625101972
     0.083304789  0.875008595  0.125057485
     0.083264920  0.875051572  0.625020140
     0.250018009  0.124990490  0.125056490
     0.249933077  0.124829486  0.625042120
     0.250034375  0.375023077  0.125007091
     0.250370359  0.375542948  0.625208472
     0.249896934  0.625058556  0.125300172
     0.249470978  0.625244942  0.625192185
     0.249990831  0.874969877  0.125069488
     0.249864553  0.875073612  0.625051944
     0.416678380  0.124922570  0.125123302
     0.416629509  0.124802664  0.625055438
     0.416676585  0.375099573  0.124813305
     0.416802949  0.373765654  0.625975341
     0.416709947  0.625000453  0.124747903
     0.415063870  0.623813692  0.626818532
     0.416665053  0.874919117  0.125072247
     0.416664193  0.874848103  0.625020830
     0.583329556  0.124925173  0.125092966
     0.583361548  0.124792876  0.625041074
     0.583392299  0.375012620  0.124727432
     0.583263897  0.373722215  0.625652963
     0.583222303  0.624966774  0.124415232
     0.583938213  0.624343309  0.624806545
     0.583332822  0.874952165  0.124934999
     0.583206054  0.874762041  0.624974433
     0.750007255  0.124978827  0.125006943
     0.750081012  0.124790577  0.625019852
     0.750108929  0.374946638  0.124598745
     0.749751509  0.375147234  0.624949497
     0.750023699  0.625006711  0.124870496
     0.750148829  0.625069895  0.624756505
     0.749996680  0.874972201  0.124950706
     0.750131976  0.875112090  0.624978378
     0.916690267  0.125013133  0.124992482
     0.916707967  0.125013711  0.624981035
     0.916721036  0.375005672  0.124911784
     0.916666828  0.374992902  0.624969219
     0.916641837  0.625006090  0.125004933
     0.916714090  0.625043988  0.624963824
     0.916664080  0.875003955  0.125016352
     0.916693559  0.875046076  0.624986935
     0.000035138  0.083373890  0.458318287
     0.000000830  0.083339666  0.958338557
     0.000083064  0.333377040  0.458352661
     0.000003848  0.333331453  0.958325776
     0.000054972  0.583354440  0.458363806
     0.999899761  0.583359658  0.958429567
     0.000003787  0.833355611  0.458349942
     0.999953965  0.833350247  0.958388960
     0.166699557  0.083345034  0.458319860
     0.166658141  0.083310074  0.958357987
     0.166938566  0.333501568  0.458530045
     0.166640945  0.333324811  0.958359982
     0.166754162  0.583368216  0.458491145
     0.166413148  0.583402770  0.958645139
     0.166651267  0.833322160  0.458373231
     0.166570600  0.833363564  0.958438875
     0.333355198  0.083288101  0.458371831
     0.333316567  0.083220331  0.958415892
     0.333841031  0.333681892  0.458690148
     0.333280861  0.333301312  0.958334330
     0.333690711  0.583272836  0.458774500
     0.332830158  0.583523759  0.958845721
     0.333355299  0.833207785  0.458394654
     0.333282407  0.833291158  0.958378699
     0.500007528  0.083264986  0.458392892
     0.499995536  0.083226345  0.958406446
     0.500169638  0.333550865  0.458653117
     0.499953477  0.332884156  0.958764597
     0.500621650  0.582672605  0.458099086
     0.499627782  0.583089036  0.957103468
     0.499976806  0.833105176  0.458432010
     0.499969082  0.833272834  0.958231069
     0.666671548  0.083264354  0.458356536
     0.666672155  0.083219398  0.958378896
     0.666492596  0.333520244  0.458417816
     0.666639468  0.333277292  0.958126224
     0.666715382  0.583300273  0.458182936
     0.666722493  0.583356069  0.958030014
     0.666718320  0.833297894  0.458245760
     0.666636355  0.833245836  0.958219235
     0.833364591  0.083323673  0.458304945
     0.833338264  0.083297788  0.958331840
     0.833288920  0.333384845  0.458317009
     0.833339378  0.333299742  0.958133672
     0.833410718  0.583343362  0.458216455
     0.833281849  0.583329755  0.958223788
     0.833367240  0.833346467  0.458289068
     0.833329734  0.833315726  0.958320660
     0.083418850  0.208407860  0.458361489
     0.083353034  0.208331067  0.958358034
     0.083522155  0.458382601  0.458419857
     0.083289131  0.458340072  0.958432444
     0.083330800  0.708356054  0.458425268
     0.083233017  0.708370337  0.958486804
     0.083349945  0.958350581  0.458326217
     0.083309845  0.958345961  0.958375807
     0.250103200  0.208409297  0.458411416
     0.249997365  0.208299382  0.958410420
     0.250754826  0.458649634  0.459274174
     0.249902428  0.458343599  0.958443963
     0.250018824  0.708296738  0.458488269
     0.249808601  0.708416916  0.958574378
     0.250004236  0.958289696  0.458377995
     0.249971563  0.958290906  0.958406669
     0.416715928  0.208351089  0.458431186
     0.416624673  0.208149474  0.958538517
     0.418601621  0.459243322  0.459891238
     0.416538306  0.458609794  0.957582526
     0.416755194  0.707771195  0.459137792
     0.416591852  0.708301813  0.958208695
     0.416664562  0.958228490  0.458389418
     0.416647924  0.958248075  0.958380065
     0.583360329  0.208319661  0.458402161
     0.583341572  0.208161780  0.958475872
     0.583189856  0.458960948  0.458015745
     0.583247981  0.458362570  0.957506928
     0.583467185  0.708130727  0.458256053
     0.583255726  0.708235273  0.957964432
     0.583329837  0.958216192  0.458373910
     0.583338148  0.958247310  0.958326842
     0.750004272  0.208326603  0.458345677
     0.749993754  0.208278929  0.958329173
     0.750020607  0.458474022  0.458198961
[...]
 196      -0.005     0.001    -0.009      -0.692
 197      -0.004    -0.001    -0.022      -0.131
 198       0.001    -0.000    -0.002       0.907
 199       0.002    -0.001    -0.004       0.873
 200       0.001     0.001    -0.003       0.136
 201      -0.003     0.002     0.004       1.152
 202      -0.009    -0.001    -0.018      -0.395
 203       0.003    -0.000    -0.022       0.135
 204      -0.004     0.003    -0.008      -0.838
 205       0.004     0.002    -0.016       0.160
 206       0.002     0.000    -0.002       0.616
 207      -0.003     0.000     0.004       0.896
 208       0.004     0.001    -0.005       0.572
 209       0.006     0.005    -0.009       0.090
 210      -0.163    -0.152    -0.262      -0.042
 211      -0.035     0.034     0.044       1.572
 212       0.010     0.003    -0.011       0.676
 213       0.011     0.005    -0.042       0.147
 214       0.003     0.001    -0.004       0.470
 215       0.004     0.003    -0.008       0.094
 216       0.004    -0.003    -0.009       0.756
 217       0.007     0.005    -0.014       0.166
 218      -0.063    -0.061    -0.156      -0.013
 219      -0.061    -0.052    -0.146      -0.064
 220      -0.593    -0.580    -0.837      -0.015
 221       0.005     0.000    -0.006       0.842
 222       0.008     0.006    -0.009       0.185
 223      -0.005     0.001     0.005       1.062
 224       0.006     0.005    -0.012       0.130
 225      -0.068    -0.058    -0.155      -0.064
 226      -0.585    -0.570    -0.826      -0.018
 227      -0.024    -0.016    -0.048      -0.153
 228      -1.726    -1.698    -2.468      -0.011
 229      -0.004     0.001     0.005       0.982
 230      -0.001    -0.000    -0.018      -0.044
 231       0.002     0.001    -0.003       0.350
 232      -0.001     0.001    -0.010      -0.161
 233       0.005    -0.000     0.015      -0.372
 234      -0.019    -0.018    -0.062      -0.023
 235      -0.029    -0.017    -0.052      -0.240
 236      -0.103    -0.100    -0.191      -0.018
 237       0.002     0.001    -0.003       0.411
 238      -0.014    -0.011    -0.025      -0.129
 239       0.002     0.000    -0.002       0.800
 240       0.003    -0.001    -0.003       1.134
 241       0.001    -0.001    -0.005       0.366
 242       0.004     0.002    -0.006       0.318
 243       0.007    -0.000    -0.008       1.015
 244       0.004    -0.000    -0.028       0.152
 245      -0.002    -0.001    -0.005      -0.114
 246       0.002    -0.002    -0.007       0.594
 247       0.002     0.001    -0.003       0.132
 248       0.003     0.001    -0.005       0.425
 249      -0.003     0.001    -0.011      -0.333
 250       0.012    -0.008     0.013      -1.536
 251      -0.010    -0.000     0.012       0.834
 252       0.025     0.017    -0.030       0.282
 253       0.003     0.001    -0.004       0.705
 254       0.005     0.004    -0.009       0.136
 255       0.004     0.001    -0.005       0.528
 256       0.003     0.003    -0.009       0.086
 257      -0.009     0.002     0.011       1.026
 258       0.039    -0.005     0.047      -0.945
 259      -0.073    -0.069    -0.164      -0.027
 260      -0.006     0.002    -0.012      -0.634
 261      -0.004    -0.003    -0.035      -0.039
 262       0.005     0.001    -0.006       0.645
 263       0.005     0.003    -0.010       0.154
 264       0.010     0.003    -0.011       0.714
 265       0.019     0.013    -0.036       0.180
 266      -0.079    -0.076    -0.187      -0.013
 267       0.006     0.000     0.015      -0.386
 268      -0.015    -0.013    -0.058      -0.038
 269       0.003     0.001    -0.004       0.428
 270       0.004     0.003    -0.007       0.116
 271      -0.004     0.002    -0.011      -0.641
 272      -0.006    -0.005    -0.037      -0.035
 273      -0.023    -0.013    -0.046      -0.228
 274      -1.750    -1.722    -2.514      -0.011
 275      -0.004    -0.002     0.005       0.266
 276      -0.117    -0.110    -0.187      -0.037
 277       0.002     0.001    -0.002       0.368
 278       0.003    -0.000    -0.005       0.711
 279       0.003    -0.000    -0.004       0.749
 280      -0.007     0.005     0.007       1.760
 281      -0.006    -0.003     0.008       0.434
 282      -0.105    -0.098    -0.186      -0.042
 283      -0.003     0.000    -0.006      -0.491
 284      -0.005    -0.004    -0.020      -0.062
 285       0.002     0.000    -0.002       0.709
 286       0.003    -0.000    -0.003       1.154
 287       0.001     0.001    -0.002       0.346
 288       0.003    -0.002    -0.006       0.719
 289       0.006    -0.002    -0.008       1.058
 290      -0.021    -0.017    -0.063      -0.066
 291      -0.002     0.001     0.004       0.836
 292       0.004     0.003    -0.007       0.242
 293       0.002     0.001    -0.002       0.397
 294       0.003    -0.000    -0.004       0.758
 295       0.003     0.001    -0.003       0.579
 296       0.003     0.002    -0.009       0.179
 297      -0.007    -0.000     0.009       0.783
 298       0.010     0.006    -0.035       0.117
 299      -0.003     0.001     0.004       0.928
 300       0.006     0.004    -0.008       0.213
 301       0.003     0.001    -0.004       0.417
 302       0.003     0.002    -0.008       0.100
 303      -0.005     0.001     0.006       0.985
 304      -0.027    -0.024    -0.057      -0.060
 305      -0.015     0.010     0.016       1.530
 306      -0.048     0.002    -0.154      -0.329
 307      -0.004    -0.001     0.006       0.636
 308       0.013     0.010    -0.016       0.161
 309       0.005     0.001    -0.005       0.750
 310       0.005     0.004    -0.009       0.135
 311      -0.016    -0.006    -0.021      -0.448
 312       0.019    -0.018     0.021      -1.710
 313      -0.030     0.029     0.033       1.793
 314      -0.059    -0.046    -0.073      -0.182
 315       0.026     0.019    -0.035       0.210
 316       0.004     0.001    -0.005       0.638
 317       0.005     0.004    -0.008       0.071
 318      -0.005    -0.001     0.007       0.558
 319       0.014     0.010    -0.018       0.180
 320       0.018    -0.018     0.020      -1.758
 321       1.070     0.842     1.135      -0.201
 322      -0.006    -0.001     0.009       0.561
 323      -0.196    -0.191    -0.324      -0.018
 324       0.002     0.001    -0.003       0.155
 325      -0.004    -0.003    -0.013      -0.103
 326      -0.002     0.001     0.004       0.628
 327      -0.002    -0.001    -0.018      -0.051
 328      -0.006    -0.002     0.011       0.314
 329      -0.201    -0.193    -0.341      -0.022
 330       0.002     0.001     0.008      -0.108
 331       0.022    -0.002     0.024      -0.995
 332      -0.001     0.000     0.002       0.938
 333       0.003    -0.001    -0.003       1.275
 334      -0.005     0.000     0.006       0.922
 335       0.005     0.004    -0.012       0.030
 336      -0.005     0.000     0.007       0.795
 337       0.009     0.008    -0.011       0.158
 338      -0.001    -0.000     0.002       0.334
 339      -0.002    -0.001     0.004       0.261
 340       0.002     0.001    -0.003       0.318
 341      -0.003    -0.001    -0.011      -0.194
 342      -0.094    -0.086    -0.133      -0.064
 343       0.006    -0.000    -0.038       0.154
 344      -0.013    -0.004    -0.020      -0.488
 345      -0.020     0.016     0.020       1.805
 346       0.002     0.001    -0.003       0.451
 347       0.004     0.002    -0.006       0.305
 348      -0.005     0.001     0.005       1.092
 349       0.006     0.005    -0.010       0.078
 350      -0.013     0.012     0.016       1.567
 351      -0.295    -0.228    -0.452      -0.148
 352       0.031     0.006     0.035      -0.716
 353       0.100    -0.023     0.120      -1.020
 354      -0.004     0.000     0.006       0.751
 355       0.002     0.001    -0.018       0.045
 356      -0.005     0.001     0.006       1.005
 357       0.007     0.005    -0.011       0.157
 358       0.030     0.005     0.033      -0.762
 359       0.087    -0.031     0.109      -1.089
 360       0.025    -0.011     0.026      -1.371
 361       1.159     0.937     1.220      -0.182
 362       0.004    -0.003    -0.007       0.957
 363      -0.011     0.010     0.011       1.869
 364       0.003     0.001    -0.004       0.628
 365       0.004     0.004    -0.008       0.095
 366      -0.064    -0.050    -0.078      -0.170
 367       0.024     0.016    -0.036       0.206
 368      -0.149    -0.140    -0.190      -0.047
 369       0.152     0.062     0.161      -0.555
 370       0.002    -0.002    -0.005       0.790
 371      -0.034    -0.033    -0.063      -0.025
 372       0.001     0.001    -0.002       0.427
 373       0.004     0.000    -0.005       0.683
 374       0.004    -0.003    -0.006       1.112
 375      -0.010     0.009     0.010       1.811
 376       0.002    -0.001     0.011      -0.261
 377       0.022    -0.006     0.024      -1.162
 378      -0.002     0.001     0.002       1.831
 379       0.003    -0.003     0.006      -0.992
 380      -0.003    -0.001     0.003       0.684
 381      -0.002     0.000     0.002       0.994
 382       0.005     0.002    -0.008       0.283
 383       0.004     0.000    -0.005       0.673
 384       0.008     0.004    -0.013       0.324
 385      -0.006     0.002     0.009       0.927
 386      -0.003     0.001     0.004       0.857
 387      -0.002     0.001     0.002       1.189
 388       0.003     0.001    -0.004       0.730
 389       0.002     0.001    -0.002       0.409
 390      -0.003    -0.001    -0.024      -0.081
 391      -0.015    -0.009    -0.023      -0.255
 392      -0.014     0.011     0.015       1.640
 393      -0.007    -0.001     0.008       0.757
 394       0.004     0.001    -0.005       0.562
 395       0.002     0.001    -0.002       0.315
 396       0.004     0.003    -0.007       0.081
 397       0.003     0.001    -0.004       0.456
 398       0.058     0.020     0.067      -0.565
 399       0.008    -0.000    -0.009       0.866
 400       0.090     0.002     0.103      -0.853
 401      -0.007     0.003    -0.031      -0.331
 402       0.002     0.001    -0.016       0.036
 403      -0.004     0.002     0.005       1.089
 404       0.007     0.005    -0.009       0.205
 405       0.005     0.001    -0.006       0.698
 406       0.088    -0.000     0.099      -0.888
 407      -0.023    -0.014    -0.054      -0.165
 408       1.162     0.935     1.223      -0.186
 409       0.057     0.010     0.063      -0.738
 410      -0.010     0.010     0.013       1.483
 411       0.005    -0.002    -0.011       0.702
 412       0.004     0.004    -0.008       0.112
 413       0.004     0.001    -0.005       0.584
 414       0.029     0.020    -0.030       0.277
 415       0.009    -0.009     0.015      -1.237
 416       0.136     0.052     0.173      -0.487
 417      -0.548    -0.544    -0.797      -0.004
 418       0.004     0.001    -0.019       0.190
 419      -0.006    -0.001    -0.017      -0.299
 420       0.002    -0.000    -0.006       0.311
 421       0.002     0.001    -0.004       0.151
 422       0.009    -0.009     0.013      -1.433
 423      -0.004     0.003    -0.012      -0.586
 424       0.020    -0.012     0.029      -1.116
 425       0.018    -0.000     0.028      -0.648
 426       0.004     0.003    -0.008       0.095
 427       0.004    -0.003     0.005      -1.391
 428       0.003    -0.001    -0.005       0.717
 429       0.001     0.000    -0.002       0.634
 430       0.008     0.003    -0.015       0.286
 431       0.005    -0.002    -0.009       0.828
 432       0.005     0.004    -0.007       0.225
 433       0.004     0.001    -0.004       0.787
 434      -0.002    -0.000     0.003       0.648
 435      -0.002     0.000     0.002       0.846
 436       0.008    -0.004     0.008      -1.480
 437      -0.003     0.001     0.003       1.131
 438       0.055     0.014     0.065      -0.628
 439      -0.008     0.000     0.011       0.734
 440      -0.012     0.011     0.012       1.902
 441       0.006     0.000    -0.006       0.902
 442       0.002     0.000    -0.006       0.291
 443       0.002     0.001    -0.003       0.141
 444      -0.013     0.011     0.014       1.732
 445      -0.005     0.000     0.006       0.894
 446       0.414    -0.127     0.448      -1.210
 447       0.018     0.007    -0.035       0.288
 448       0.029     0.021    -0.030       0.272
 449       0.009    -0.009     0.015      -1.213
 450       0.005     0.004    -0.008       0.155
 451       0.004     0.001    -0.005       0.583
 452       0.013     0.011    -0.014       0.125
 453      -0.006     0.001     0.007       0.971
 454       1.072     0.842     1.138      -0.202
 455       0.063     0.015     0.069      -0.695
 456       0.086     0.057     0.110      -0.262
 457       0.016    -0.013     0.023      -1.288
 458       0.006     0.004    -0.009       0.228
 459       0.005     0.001    -0.007       0.568
 460       0.002     0.001    -0.015       0.018
 461      -0.004     0.002     0.006       1.024
 462       0.086     0.057     0.112      -0.261
 463       0.016    -0.013     0.023      -1.267
 464       0.019    -0.012     0.025      -1.231
 465       0.019     0.001     0.025      -0.709
 466       0.002     0.001    -0.008       0.058
 467       0.002     0.000    -0.006       0.296
 468       0.004     0.001    -0.004       0.625
 469       0.001     0.001    -0.002       0.066
 470       0.005    -0.001    -0.022       0.267
 471      -0.006     0.002    -0.017      -0.438
 472      -0.008     0.006     0.009       1.582
 473       0.006     0.001    -0.007       0.629
 474       0.003     0.000    -0.004       0.630
 475       0.002     0.001    -0.002       0.441
 476      -0.001    -0.001     0.002       0.214
 477       0.002    -0.002    -0.003       1.126
 478      -0.007     0.002     0.008       1.158
 479      -0.008     0.005     0.009       1.472
 480      -0.006     0.002     0.007       1.139
 481       0.008     0.005    -0.008       0.368
 482      -0.002    -0.000     0.002       0.744
 483      -0.002    -0.000     0.003       0.733
 484       0.003     0.001    -0.003       0.407
 485       0.002     0.000    -0.004       0.451
 486      -0.009     0.006     0.013       1.151
 487       0.009     0.004    -0.011       0.495
 488      -0.007     0.004     0.008       1.394
 489       0.008     0.004    -0.009       0.409
 490       0.002    -0.000    -0.003       0.516
 491      -0.003     0.000     0.003       1.000
 492       0.004     0.002    -0.008       0.214
 493       0.005     0.003    -0.007       0.207
 494      -0.546    -0.540    -0.782      -0.007
 495       0.021     0.013    -0.027       0.305
 496      -0.017     0.012     0.018       1.632
 497      -0.017     0.016     0.021       1.565
 498       0.004     0.002    -0.005       0.280
 499       0.003     0.002    -0.007       0.103
 500       0.008     0.004    -0.009       0.483
 501       0.009     0.005    -0.009       0.393
 502       0.111     0.015     0.116      -0.835
 503      -0.290    -0.224    -0.455      -0.146
 504      -0.186    -0.178    -0.318      -0.024
 505       0.090     0.000     0.097      -0.921
 506       0.006     0.002    -0.007       0.567
 507      -0.003     0.001    -0.017      -0.190
 508       0.004     0.002    -0.009       0.278
 509       0.006     0.004    -0.009       0.269
 510      -0.208    -0.200    -0.345      -0.025
 511       0.089    -0.001     0.095      -0.957
 512       0.016    -0.013     0.025      -1.200
 513       0.134     0.043     0.142      -0.640
 514       0.005     0.002    -0.006       0.581
 515       0.007     0.005    -0.008       0.228
 516       0.003     0.002    -0.004       0.091
 517       0.003     0.002    -0.006       0.151
 518       0.005    -0.003    -0.018       0.435
 519       0.017     0.013    -0.019       0.197
 520      -0.005     0.003    -0.018      -0.483
 521       0.014     0.010    -0.022       0.196
 522       0.002     0.002    -0.003       0.189
 523       0.004     0.004    -0.004       0.164
 524       0.002     0.000    -0.002       0.931
 525      -0.002    -0.000     0.003       0.915
 526       0.003     0.001    -0.006       0.311
 527      -0.003    -0.002    -0.010      -0.112
 528       0.008     0.001    -0.010       0.640
 529      -0.010     0.004     0.010       1.397
 530      -0.003     0.001     0.003       1.400
 531       0.003     0.001    -0.004       0.699
 532       0.002     0.001    -0.004       0.199
 533       0.003     0.002    -0.004       0.330
 534       0.009     0.006    -0.009       0.312
 535       0.006     0.003    -0.009       0.301
 536       0.017     0.010    -0.020       0.334
 537      -0.015     0.010     0.020       1.217
 538       0.003     0.002    -0.007       0.115
 539       0.004     0.004    -0.007       0.101
 540       0.005     0.003    -0.006       0.377
 541       0.004     0.002    -0.007       0.233
 542       0.016     0.011    -0.018       0.247
 543       0.011    -0.010     0.022      -0.946
 544       0.122     0.024     0.124      -0.789
 545      -0.052     0.004    -0.147      -0.382
 546      -0.008     0.007     0.012       1.239
 547      -0.012     0.010     0.012       1.754
 548       0.005     0.002    -0.007       0.437
 549       0.005     0.003    -0.008       0.297
 550      -0.017     0.013     0.019       1.568
 551      -0.017     0.016     0.020       1.627
 552       0.133     0.038     0.144      -0.664
 553       0.399    -0.156     0.429      -1.294
 554       0.004    -0.003    -0.019       0.349
 555       0.016     0.013    -0.020       0.155
 556       0.003     0.002    -0.005       0.223
 557       0.004     0.003    -0.005       0.154
 558      -0.007     0.007     0.011       1.266
 559       0.012     0.009    -0.012       0.209
 560      -0.015     0.014     0.024       1.207
 561       0.125     0.032     0.135      -0.688
 562      -0.005     0.003     0.008       1.107
 563       0.020    -0.002     0.023      -0.928
 564       0.002     0.001    -0.003       0.597
 565       0.003     0.001    -0.003       0.665
 566       0.004     0.002    -0.005       0.425
 567      -0.003    -0.002    -0.015      -0.074
 568      -0.008     0.002     0.011       0.945
 569       0.018    -0.006     0.025      -0.944
 570       0.003     0.002    -0.003       0.355
 571       0.005     0.004    -0.006       0.189
 572       0.638     0.560     0.761      -0.102
 573      -0.242    -0.035     0.400       0.517
 574     -14.789   -14.747   -25.744      -0.002
 575     -14.753   -14.713   -25.821      -0.002
 576       0.579     0.512     0.709      -0.095
 ---------------------------------------------------------------------



--------------------------------------------------------------------------------------------------------


     LOOP+:  cpu time 1368.2955: real time 1372.7071
    4ORBIT:  cpu time    0.0000: real time    0.0000

 total amount of memory used by VASP MPI-rank0   238700. kBytes
=======================================================================

   base      :      30000. kBytes
   nonlr-proj:       9223. kBytes
   fftplans  :      15014. kBytes
   grid      :      46644. kBytes
   one-center:        294. kBytes
   wavefun   :     137525. kBytes
 
  
  
 General timing and accounting informations for this job:
 ========================================================
  
                  Total CPU time used (sec):     1395.971
                            User time (sec):     1395.028
                          System time (sec):        0.943
                         Elapsed time (sec):     1402.728
  
                   Maximum memory used (kb):      442804.
                   Average memory used (kb):          N/A
  
                          Minor page faults:       101442
                          Major page faults:            0
                 Voluntary context switches:        14556
