 vasp.6.2.0 18Jan21 (build Apr 30 2021 19:00:08) gamma-only                     
  
 executed on             LinuxIFC date 2022.12.30  13:47:42
 running on   24 total cores
 distrk:  each k-point on   24 cores,    1 groups
 distr:  one band on NCORE=   6 cores,    4 groups


--------------------------------------------------------------------------------------------------------


 INCAR:
   SYSTEM = Diamond
   PREC = Normal
   ISTART = 0
   ICHARG = 11
   ISPIN = 2
   MAGMOM = 572*0.0 1*2.0 2*2.0 1*3
   NPAR = 4
   NELECT = 2303
   LHYPERFINE = T
   LEFG = T
   ENCUT = 700
   NELM = 1000
   NELMIN = 4
   EDIFF = 1E-06
   LREAL = Auto
   ALGO = Normal
   EDIFFG = -1E-02
   NSW = 0
   IBRION = 2
   ISIF = 2
   ISYM = 2
   POTIM = 0.5
   ISMEAR = 0
   SIGMA = 0.05
   NEDOS = 1000
   LWAVE = F
   LCHARG = F
   LVHAR = F
   LELF = F

 POTCAR:    PAW_PBE C 08Apr2002                   
 POTCAR:    PAW_PBE H 15Jun2001                   
 POTCAR:    PAW_PBE C 08Apr2002                   
 POTCAR:    PAW_PBE N 08Apr2002                   
 POTCAR:    PAW_PBE C 08Apr2002                   
   VRHFIN =C: s2p2                                                                                  
   LEXCH  = PE                                                                                      
   EATOM  =   147.1560 eV,   10.8157 Ry                                                             
                                                                                                    
   TITEL  = PAW_PBE C 08Apr2002                                                                     
   LULTRA =        F    use ultrasoft PP ?                                                          
   IUNSCR =        1    unscreen: 0-lin 1-nonlin 2-no                                               
   RPACOR =    1.200    partial core radius                                                         
   POMASS =   12.011; ZVAL   =    4.000    mass and valenz                                          
   RCORE  =    1.500    outmost cutoff radius                                                       
   RWIGS  =    1.630; RWIGS  =    0.863    wigner-seitz radius (au A)                               
   ENMAX  =  400.000; ENMIN  =  300.000 eV                                                          
   ICORE  =        2    local potential                                                             
   LCOR   =        T    correct aug charges                                                         
   LPAW   =        T    paw PP                                                                      
   EAUG   =  644.873                                                                                
   DEXC   =    0.000                                                                                
   RMAX   =    1.529    core radius for proj-oper                                                   
   RAUG   =    1.300    factor for augmentation sphere                                              
   RDEP   =    1.501    radius for radial grids                                                     
   RDEPT  =    1.300    core radius for aug-charge                                                  
                                                                                                    
   Atomic configuration                                                                             
    4 entries                                                                                       
     n  l   j            E        occ.                                                              
     1  0  0.50      -273.3789   2.0000                                                             
     2  0  0.50       -13.7508   2.0000                                                             
     2  1  0.50        -5.2854   2.0000                                                             
     3  2  1.50        -5.4423   0.0000                                                             
   Description                                                                                      
     l       E           TYP  RCUT    TYP  RCUT                                                     
     0    -13.7508458     23  1.200                                                                 
     0     -8.2022199     23  1.200                                                                 
     1     -5.2854383     23  1.500                                                                 
     1     34.0145650     23  1.500                                                                 
     2     -5.4423304      7  1.500                                                                 
  local pseudopotential read in
  partial core-charges read in
  partial kinetic energy density read in
  atomic valenz-charges read in
  non local Contribution for L=           0  read in
    real space projection operators read in
  non local Contribution for L=           0  read in
    real space projection operators read in
  non local Contribution for L=           1  read in
    real space projection operators read in
  non local Contribution for L=           1  read in
    real space projection operators read in
    PAW grid and wavefunctions read in
 
   number of l-projection  operators is LMAX  =           4
   number of lm-projection operators is LMMAX =           8
 
 POTCAR:    PAW_PBE H 15Jun2001                   
   VRHFIN =H: ultrasoft test                                                                        
   LEXCH  = PE                                                                                      
   EATOM  =    12.4884 eV,    0.9179 Ry                                                             
                                                                                                    
   TITEL  = PAW_PBE H 15Jun2001                                                                     
   LULTRA =        F    use ultrasoft PP ?                                                          
   IUNSCR =        0    unscreen: 0-lin 1-nonlin 2-no                                               
   RPACOR =    0.000    partial core radius                                                         
   POMASS =    1.000; ZVAL   =    1.000    mass and valenz                                          
   RCORE  =    1.100    outmost cutoff radius                                                       
   RWIGS  =    0.700; RWIGS  =    0.370    wigner-seitz radius (au A)                               
   ENMAX  =  250.000; ENMIN  =  200.000 eV                                                          
   RCLOC  =    0.701    cutoff for local pot                                                        
   LCOR   =        T    correct aug charges                                                         
   LPAW   =        T    paw PP                                                                      
   EAUG   =  400.000                                                                                
   RMAX   =    1.123    core radius for proj-oper                                                   
   RAUG   =    1.200    factor for augmentation sphere                                              
   RDEP   =    1.112    radius for radial grids                                                     
   RDEPT  =    0.926    core radius for aug-charge                                                  
                                                                                                    
   Atomic configuration                                                                             
    2 entries                                                                                       
     n  l   j            E        occ.                                                              
     1  0  0.50        -6.4927   1.0000                                                             
     2  1  0.50        -3.4015   0.0000                                                             
   Description                                                                                      
     l       E           TYP  RCUT    TYP  RCUT                                                     
     0     -6.4927494     23  1.100                                                                 
     0      6.8029130     23  1.100                                                                 
     1     -4.0817478     23  1.100                                                                 
  local pseudopotential read in
  atomic valenz-charges read in
  non local Contribution for L=           0  read in
    real space projection operators read in
  non local Contribution for L=           0  read in
    real space projection operators read in
  non local Contribution for L=           1  read in
    real space projection operators read in
    PAW grid and wavefunctions read in
 
   number of l-projection  operators is LMAX  =           3
   number of lm-projection operators is LMMAX =           5
 
 POTCAR:    PAW_PBE C 08Apr2002                   
   VRHFIN =C: s2p2                                                                                  
   LEXCH  = PE                                                                                      
   EATOM  =   147.1560 eV,   10.8157 Ry                                                             
                                                                                                    
   TITEL  = PAW_PBE C 08Apr2002                                                                     
   LULTRA =        F    use ultrasoft PP ?                                                          
   IUNSCR =        1    unscreen: 0-lin 1-nonlin 2-no                                               
   RPACOR =    1.200    partial core radius                                                         
   POMASS =   12.011; ZVAL   =    4.000    mass and valenz                                          
   RCORE  =    1.500    outmost cutoff radius                                                       
   RWIGS  =    1.630; RWIGS  =    0.863    wigner-seitz radius (au A)                               
   ENMAX  =  400.000; ENMIN  =  300.000 eV                                                          
   ICORE  =        2    local potential                                                             
   LCOR   =        T    correct aug charges                                                         
   LPAW   =        T    paw PP                                                                      
   EAUG   =  644.873                                                                                
   DEXC   =    0.000                                                                                
   RMAX   =    1.529    core radius for proj-oper                                                   
   RAUG   =    1.300    factor for augmentation sphere                                              
   RDEP   =    1.501    radius for radial grids                                                     
   RDEPT  =    1.300    core radius for aug-charge                                                  
                                                                                                    
   Atomic configuration                                                                             
    4 entries                                                                                       
     n  l   j            E        occ.                                                              
     1  0  0.50      -273.3789   2.0000                                                             
     2  0  0.50       -13.7508   2.0000                                                             
     2  1  0.50        -5.2854   2.0000                                                             
     3  2  1.50        -5.4423   0.0000                                                             
   Description                                                                                      
     l       E           TYP  RCUT    TYP  RCUT                                                     
     0    -13.7508458     23  1.200                                                                 
     0     -8.2022199     23  1.200                                                                 
     1     -5.2854383     23  1.500                                                                 
     1     34.0145650     23  1.500                                                                 
     2     -5.4423304      7  1.500                                                                 
  local pseudopotential read in
  partial core-charges read in
  partial kinetic energy density read in
  atomic valenz-charges read in
  non local Contribution for L=           0  read in
    real space projection operators read in
  non local Contribution for L=           0  read in
    real space projection operators read in
  non local Contribution for L=           1  read in
    real space projection operators read in
  non local Contribution for L=           1  read in
    real space projection operators read in
    PAW grid and wavefunctions read in
 
   number of l-projection  operators is LMAX  =           4
   number of lm-projection operators is LMMAX =           8
 
 POTCAR:    PAW_PBE N 08Apr2002                   
   VRHFIN =N: s2p3                                                                                  
   LEXCH  = PE                                                                                      
   EATOM  =   264.5486 eV,   19.4438 Ry                                                             
                                                                                                    
   TITEL  = PAW_PBE N 08Apr2002                                                                     
   LULTRA =        F    use ultrasoft PP ?                                                          
   IUNSCR =        1    unscreen: 0-lin 1-nonlin 2-no                                               
   RPACOR =    1.200    partial core radius                                                         
   POMASS =   14.001; ZVAL   =    5.000    mass and valenz                                          
   RCORE  =    1.500    outmost cutoff radius                                                       
   RWIGS  =    1.400; RWIGS  =    0.741    wigner-seitz radius (au A)                               
   ENMAX  =  400.000; ENMIN  =  300.000 eV                                                          
   ICORE  =        2    local potential                                                             
   LCOR   =        T    correct aug charges                                                         
   LPAW   =        T    paw PP                                                                      
   EAUG   =  627.112                                                                                
   DEXC   =    0.000                                                                                
   RMAX   =    1.529    core radius for proj-oper                                                   
   RAUG   =    1.300    factor for augmentation sphere                                              
   RDEP   =    1.514    radius for radial grids                                                     
   RDEPT  =    1.338    core radius for aug-charge                                                  
                                                                                                    
   Atomic configuration                                                                             
    4 entries                                                                                       
     n  l   j            E        occ.                                                              
     1  0  0.50      -384.7179   2.0000                                                             
     2  0  0.50       -18.5828   2.0000                                                             
     2  1  0.50        -7.0898   3.0000                                                             
     3  2  1.50        -6.8029   0.0000                                                             
   Description                                                                                      
     l       E           TYP  RCUT    TYP  RCUT                                                     
     0    -18.5828119     23  1.200                                                                 
     0    -13.5018863     23  1.200                                                                 
     1     -7.0897853     23  1.500                                                                 
     1      9.5240782     23  1.500                                                                 
     2     -6.8029130      7  1.500                                                                 
  local pseudopotential read in
  partial core-charges read in
  partial kinetic energy density read in
  atomic valenz-charges read in
  non local Contribution for L=           0  read in
    real space projection operators read in
  non local Contribution for L=           0  read in
    real space projection operators read in
  non local Contribution for L=           1  read in
    real space projection operators read in
  non local Contribution for L=           1  read in
    real space projection operators read in
    PAW grid and wavefunctions read in
 
   number of l-projection  operators is LMAX  =           4
   number of lm-projection operators is LMMAX =           8
 
 Optimization of the real space projectors (new method)

 maximal supplied QI-value         = 25.13
 optimisation between [QCUT,QGAM] = [ 13.32, 26.89] = [ 49.69,202.52] Ry 
 Optimized for a Real-space Cutoff    1.01 Angstroem

   l    n(q)    QCUT    max X(q) W(low)/X(q) W(high)/X(q)  e(spline) 
   0      8    13.321   115.676    0.29E-03    0.42E-03    0.11E-06
   0      8    13.321    87.132    0.29E-03    0.42E-03    0.11E-06
   1      8    13.321     4.429    0.39E-03    0.33E-03    0.98E-07
   1      8    13.321     2.733    0.30E-03    0.26E-03    0.97E-07
 Optimization of the real space projectors (new method)

 maximal supplied QI-value         = 34.20
 optimisation between [QCUT,QGAM] = [ 13.34, 27.02] = [ 49.83,204.46] Ry 
 Optimized for a Real-space Cutoff    0.93 Angstroem

   l    n(q)    QCUT    max X(q) W(low)/X(q) W(high)/X(q)  e(spline) 
   0      7    13.340    19.460    0.47E-03    0.72E-04    0.17E-06
   0      7    13.340    12.209    0.45E-03    0.63E-04    0.16E-06
   1      7    13.340     4.655    0.21E-03    0.61E-03    0.12E-06
 Optimization of the real space projectors (new method)

 maximal supplied QI-value         = 25.13
 optimisation between [QCUT,QGAM] = [ 13.32, 26.89] = [ 49.69,202.52] Ry 
 Optimized for a Real-space Cutoff    1.01 Angstroem

   l    n(q)    QCUT    max X(q) W(low)/X(q) W(high)/X(q)  e(spline) 
   0      8    13.321   115.676    0.29E-03    0.42E-03    0.11E-06
   0      8    13.321    87.132    0.29E-03    0.42E-03    0.11E-06
   1      8    13.321     4.429    0.39E-03    0.33E-03    0.98E-07
   1      8    13.321     2.733    0.30E-03    0.26E-03    0.97E-07
 Optimization of the real space projectors (new method)

 maximal supplied QI-value         = 25.13
 optimisation between [QCUT,QGAM] = [ 13.32, 26.89] = [ 49.69,202.52] Ry 
 Optimized for a Real-space Cutoff    1.01 Angstroem

   l    n(q)    QCUT    max X(q) W(low)/X(q) W(high)/X(q)  e(spline) 
   0      8    13.321    79.467    0.28E-03    0.38E-03    0.11E-06
   0      8    13.321    66.151    0.27E-03    0.38E-03    0.11E-06
   1      8    13.321    23.070    0.40E-03    0.78E-03    0.29E-06
   1      8    13.321    16.668    0.40E-03    0.79E-03    0.30E-06
  PAW_PBE C 08Apr2002                   :
 energy of atom  1       EATOM= -147.1560
 kinetic energy error for atom=    0.0032 (will be added to EATOM!!)
  PAW_PBE H 15Jun2001                   :
 energy of atom  2       EATOM=  -12.4884
 kinetic energy error for atom=    0.0002 (will be added to EATOM!!)
  PAW_PBE C 08Apr2002                   :
 energy of atom  3       EATOM= -147.1560
 kinetic energy error for atom=    0.0032 (will be added to EATOM!!)
  PAW_PBE N 08Apr2002                   :
 energy of atom  4       EATOM= -264.5486
 kinetic energy error for atom=    0.0061 (will be added to EATOM!!)
 
 
 POSCAR: Autosave
  positions in direct lattice
  velocities in cartesian coordinates
 exchange correlation table for  LEXCH =        8
   RHO(1)=    0.500       N(1)  =     2000
   RHO(2)=  100.500       N(2)  =     4000
 


--------------------------------------------------------------------------------------------------------


 ion  position               nearest neighbor table
   1  0.000  0.000  0.000- 285 1.55 475 1.55 435 1.55 381 1.55
   2  0.000  0.000  0.500- 286 1.55 474 1.55 434 1.55 380 1.55
   3  0.000  0.250  1.000- 287 1.55 383 1.55 469 1.55 429 1.55
   4  0.000  0.250  0.500- 288 1.55 382 1.55 468 1.55 428 1.55
   5  0.000  0.500  0.000- 289 1.55 385 1.55 471 1.55 431 1.55
   6  0.000  0.500  0.500- 290 1.55 384 1.55 470 1.55 430 1.55
   7  0.000  0.750  0.000- 291 1.55 473 1.55 433 1.55 387 1.55
   8  0.000  0.750  0.500- 292 1.55 472 1.55 432 1.55 386 1.55
   9  0.167  1.000  0.000- 293 1.55 435 1.55 389 1.55 443 1.55
  10  0.167  1.000  0.500- 294 1.55 434 1.55 388 1.55 442 1.55
  11  0.167  0.250  1.000- 429 1.55 295 1.55 437 1.55 391 1.55
  12  0.167  0.250  0.500- 296 1.55 436 1.55 390 1.55 428 1.55
  13  0.167  0.500  1.000- 297 1.55 431 1.55 393 1.55 439 1.55
  14  0.167  0.500  0.500- 392 1.55 298 1.55 430 1.55 438 1.55
  15  0.167  0.750  0.000- 441 1.55 299 1.55 433 1.55 395 1.55
  16  0.167  0.750  0.500- 300 1.55 432 1.55 394 1.55 440 1.55
  17  0.333  1.000  0.000- 397 1.55 301 1.55 451 1.55 443 1.55
  18  0.333  1.000  0.500- 302 1.55 442 1.55 450 1.55 396 1.55
  19  0.333  0.250  1.000- 303 1.55 437 1.55 445 1.55 399 1.55
  20  0.334  0.250  0.500- 444 1.55 304 1.55 436 1.55 398 1.55
  21  0.333  0.500  1.000- 305 1.54 439 1.55 401 1.55 447 1.55
  22  0.335  0.500  0.500- 400 1.54 306 1.55 446 1.56 438 1.56
  23  0.333  0.750  0.000- 307 1.55 403 1.55 449 1.55 441 1.55
  24  0.333  0.750  0.500- 440 1.55 308 1.55 402 1.55 448 1.55
  25  0.500  1.000  0.000- 405 1.55 309 1.55 459 1.55 451 1.55
  26  0.500  1.000  0.500- 310 1.55 404 1.55 458 1.55 450 1.55
  27  0.500  0.250  0.000- 407 1.54 311 1.54 453 1.55 445 1.55
  28  0.500  0.250  0.500- 452 1.55 444 1.55 312 1.55 406 1.55
  29  0.500  0.500  1.000- 313 1.54 455 1.55 447 1.55 409 1.55
  30  0.500  0.750  0.000- 314 1.54 411 1.55 457 1.55 449 1.55
  31  0.500  0.750  0.500- 456 1.54 448 1.54 315 1.55 410 1.55
  32  0.667  1.000  0.000- 413 1.55 316 1.55 459 1.55 467 1.55
  33  0.667  1.000  0.500- 317 1.55 466 1.55 458 1.55 412 1.55
  34  0.667  0.250  1.000- 318 1.55 461 1.55 453 1.55 415 1.55
  35  0.666  0.250  0.500- 452 1.55 319 1.55 460 1.55 414 1.55
  36  0.667  0.500  1.000- 320 1.54 463 1.55 417 1.55 455 1.55
  37  0.665  0.500  0.500- 416 1.54 321 1.55 454 1.56 462 1.56
  38  0.667  0.750  0.000- 322 1.55 419 1.55 457 1.55 465 1.55
  39  0.667  0.750  0.500- 464 1.55 323 1.55 418 1.55 456 1.55
  40  0.833  1.000  0.000- 324 1.55 475 1.55 421 1.55 467 1.55
  41  0.833  1.000  0.500- 325 1.55 474 1.55 420 1.55 466 1.55
  42  0.833  0.250  1.000- 469 1.55 326 1.55 461 1.55 423 1.55
  43  0.833  0.250  0.500- 327 1.55 460 1.55 422 1.55 468 1.55
  44  0.833  0.500  1.000- 328 1.55 471 1.55 425 1.55 463 1.55
  45  0.833  0.500  0.500- 424 1.55 329 1.55 470 1.55 462 1.55
  46  0.833  0.750  0.000- 465 1.55 330 1.55 473 1.55 427 1.55
  47  0.833  0.750  0.500- 331 1.55 472 1.55 426 1.55 464 1.55
  48  0.083  0.125  0.000- 381 1.55 332 1.55 429 1.55 389 1.55
  49  0.083  0.125  0.500- 333 1.55 380 1.55 428 1.55 388 1.55
  50  0.083  0.375  1.000- 383 1.55 431 1.55 334 1.55 391 1.55
  51  0.083  0.375  0.500- 430 1.55 335 1.55 390 1.55 382 1.55
  52  0.083  0.625  0.000- 393 1.55 385 1.55 336 1.55 433 1.55
  53  0.083  0.625  0.500- 337 1.55 432 1.55 384 1.55 392 1.55
  54  0.083  0.875  0.000- 395 1.55 338 1.55 387 1.55 435 1.55
  55  0.083  0.875  0.500- 339 1.55 386 1.55 434 1.55 394 1.55
  56  0.250  0.125  0.000- 340 1.55 389 1.55 437 1.55 397 1.55
  57  0.250  0.125  0.500- 341 1.55 388 1.55 396 1.55 436 1.55
  58  0.250  0.375  1.000- 342 1.54 391 1.55 439 1.55 399 1.55
  59  0.250  0.375  0.500- 438 1.54 398 1.55 343 1.55 390 1.55
  60  0.250  0.625  0.000- 401 1.54 344 1.54 393 1.55 441 1.55
  61  0.250  0.625  0.500- 345 1.55 440 1.55 392 1.55 400 1.55
  62  0.250  0.875  0.000- 443 1.55 346 1.55 403 1.55 395 1.55
  63  0.250  0.875  0.500- 394 1.55 347 1.55 442 1.55 402 1.55
  64  0.417  0.125  0.000- 445 1.55 348 1.55 397 1.55 405 1.55
  65  0.417  0.125  0.500- 396 1.55 349 1.55 404 1.55 444 1.55
  66  0.417  0.375  1.000- 350 1.54 399 1.55 407 1.55 447 1.55
  67  0.418  0.375  0.500- 406 1.54 351 1.55 398 1.55 446 1.56
  68  0.417  0.625  0.000- 352 1.54 449 1.55 401 1.55 409 1.55
  69  0.417  0.624  0.501- 400 1.54 353 1.55 448 1.56 408 1.56
  70  0.417  0.875  0.000- 451 1.55 354 1.55 411 1.55 403 1.55
  71  0.417  0.875  0.500- 355 1.55 402 1.55 410 1.55 450 1.55
  72  0.583  0.125  0.000- 453 1.55 356 1.55 413 1.55 405 1.55
  73  0.583  0.125  0.500- 412 1.55 357 1.55 404 1.55 452 1.55
  74  0.583  0.375  1.000- 358 1.54 415 1.55 407 1.55 455 1.55
  75  0.582  0.375  0.500- 406 1.54 359 1.55 414 1.55 454 1.56
  76  0.583  0.625  0.000- 360 1.54 457 1.55 417 1.55 409 1.55
  77  0.583  0.624  0.501- 416 1.54 361 1.55 456 1.56 408 1.56
  78  0.583  0.875  0.000- 459 1.55 362 1.55 411 1.55 419 1.55
  79  0.583  0.875  0.500- 363 1.55 418 1.55 410 1.55 458 1.55
  80  0.750  0.125  0.000- 364 1.55 421 1.55 461 1.55 413 1.55
  81  0.750  0.125  0.500- 365 1.55 420 1.55 412 1.55 460 1.55
  82  0.750  0.375  1.000- 366 1.54 423 1.55 463 1.55 415 1.55
  83  0.750  0.375  0.500- 462 1.54 414 1.55 367 1.55 422 1.55
  84  0.750  0.625  0.000- 417 1.54 368 1.54 425 1.55 465 1.55
  85  0.750  0.625  0.500- 369 1.55 464 1.55 424 1.55 416 1.55
  86  0.750  0.875  0.000- 467 1.55 370 1.55 419 1.55 427 1.55
  87  0.750  0.875  0.500- 426 1.55 371 1.55 466 1.55 418 1.55
  88  0.917  0.125  0.000- 381 1.55 372 1.55 469 1.55 421 1.55
  89  0.917  0.125  0.500- 373 1.55 380 1.55 468 1.55 420 1.55
  90  0.917  0.375  1.000- 383 1.55 471 1.55 374 1.55 423 1.55
  91  0.917  0.375  0.500- 470 1.55 375 1.55 422 1.55 382 1.55
  92  0.917  0.625  0.000- 425 1.55 385 1.55 376 1.55 473 1.55
  93  0.917  0.625  0.500- 377 1.55 472 1.55 384 1.55 424 1.55
  94  0.917  0.875  0.000- 427 1.55 378 1.55 387 1.55 475 1.55
  95  0.917  0.875  0.500- 379 1.55 386 1.55 474 1.55 426 1.55
  96  0.000  0.083  0.333- 380 1.55 476 1.55 564 1.55 524 1.55
  97  0.000  0.083  0.833- 381 1.55 565 1.55 525 1.55 477 1.55
  98  0.000  0.333  0.333- 382 1.55 478 1.55 566 1.55 526 1.55
  99  0.000  0.333  0.833- 383 1.55 479 1.55 567 1.55 527 1.55
 100  0.000  0.583  0.333- 384 1.55 480 1.55 568 1.55 528 1.55
 101  0.000  0.583  0.833- 385 1.55 481 1.55 569 1.55 529 1.55
 102  0.000  0.833  0.333- 386 1.55 570 1.55 530 1.55 482 1.55
 103  0.000  0.833  0.833- 387 1.55 571 1.55 531 1.55 483 1.55
 104  0.167  0.083  0.333- 388 1.55 524 1.55 484 1.55 532 1.55
 105  0.167  0.083  0.833- 525 1.55 389 1.55 485 1.55 533 1.55
 106  0.167  0.333  0.333- 390 1.55 486 1.55 534 1.55 526 1.55
 107  0.167  0.333  0.833- 391 1.55 527 1.55 535 1.55 487 1.55
 108  0.167  0.583  0.333- 392 1.55 488 1.55 528 1.55 536 1.55
 109  0.167  0.583  0.833- 529 1.55 489 1.55 393 1.55 537 1.55
 110  0.167  0.833  0.333- 394 1.55 530 1.55 538 1.55 490 1.55
 111  0.167  0.833  0.833- 539 1.55 491 1.55 531 1.55 395 1.55
 112  0.333  0.083  0.333- 396 1.55 532 1.55 540 1.55 492 1.55
 113  0.333  0.083  0.833- 493 1.54 533 1.55 397 1.55 541 1.55
 114  0.333  0.333  0.333- 542 1.55 534 1.55 494 1.55 398 1.55
 115  0.333  0.333  0.833- 399 1.55 535 1.55 543 1.55 495 1.55
 116  0.333  0.583  0.333- 496 1.55 536 1.55 544 1.55 400 1.55
 117  0.333  0.584  0.835- 401 1.54 537 1.55 497 1.55 545 1.55
 118  0.333  0.833  0.333- 402 1.55 546 1.55 538 1.55 498 1.55
 119  0.333  0.833  0.833- 499 1.55 403 1.55 547 1.55 539 1.55
 120  0.500  0.083  0.333- 404 1.55 500 1.55 548 1.55 540 1.55
 121  0.500  0.083  0.833- 501 1.55 405 1.55 549 1.55 541 1.55
 122  0.500  0.333  0.333- 550 1.55 542 1.55 502 1.55 406 1.55
 123  0.500  0.333  0.834- 407 1.54 503 1.54 551 1.55 543 1.55
 124  0.500  0.584  0.332- 504 1.54 408 1.54 552 1.55 544 1.55
 125  0.500  0.583  0.833- 409 1.54 505 1.54 553 1.55 545 1.55
 126  0.500  0.833  0.333- 410 1.55 554 1.55 546 1.55 506 1.55
 127  0.500  0.833  0.833- 507 1.55 411 1.55 555 1.55 547 1.55
 128  0.667  0.083  0.333- 412 1.55 556 1.55 548 1.55 508 1.55
 129  0.667  0.083  0.833- 509 1.54 557 1.55 413 1.55 549 1.55
 130  0.667  0.333  0.333- 550 1.55 558 1.55 510 1.55 414 1.55
 131  0.667  0.333  0.833- 415 1.55 559 1.55 551 1.55 511 1.55
 132  0.667  0.583  0.333- 512 1.55 560 1.55 552 1.55 416 1.55
 133  0.667  0.584  0.835- 417 1.54 561 1.55 513 1.55 553 1.55
 134  0.667  0.833  0.333- 418 1.55 554 1.55 562 1.55 514 1.55
 135  0.667  0.833  0.833- 515 1.55 419 1.55 555 1.55 563 1.55
 136  0.833  0.083  0.333- 420 1.55 564 1.55 516 1.55 556 1.55
 137  0.833  0.083  0.833- 565 1.55 421 1.55 517 1.55 557 1.55
 138  0.833  0.333  0.333- 422 1.55 518 1.55 558 1.55 566 1.55
 139  0.833  0.333  0.833- 423 1.55 567 1.55 559 1.55 519 1.55
 140  0.833  0.583  0.333- 424 1.55 520 1.55 568 1.55 560 1.55
 141  0.833  0.583  0.833- 569 1.55 521 1.55 425 1.55 561 1.55
 142  0.833  0.833  0.333- 426 1.55 570 1.55 562 1.55 522 1.55
 143  0.833  0.833  0.833- 563 1.55 523 1.55 571 1.55 427 1.55
 144  0.083  0.208  0.333- 428 1.55 526 1.55 484 1.55 476 1.55
 145  0.083  0.208  0.833- 429 1.55 485 1.55 477 1.55 527 1.55
 146  0.083  0.458  0.333- 430 1.55 528 1.55 486 1.55 478 1.55
 147  0.083  0.458  0.833- 431 1.55 529 1.55 479 1.55 487 1.55
 148  0.083  0.708  0.333- 432 1.55 488 1.55 530 1.55 480 1.55
 149  0.083  0.708  0.833- 433 1.55 489 1.55 531 1.55 481 1.55
 150  0.083  0.958  0.333- 434 1.55 490 1.55 482 1.55 524 1.55
 151  0.083  0.958  0.833- 491 1.55 435 1.55 525 1.55 483 1.55
 152  0.250  0.208  0.333- 436 1.55 484 1.55 534 1.55 492 1.55
 153  0.250  0.208  0.833- 485 1.55 437 1.55 493 1.55 535 1.55
 154  0.250  0.458  0.333- 536 1.55 494 1.55 486 1.55 438 1.55
 155  0.250  0.458  0.833- 439 1.55 487 1.55 537 1.55 495 1.55
 156  0.250  0.708  0.333- 440 1.55 488 1.55 496 1.55 538 1.55
 157  0.250  0.708  0.833- 497 1.55 441 1.55 539 1.55 489 1.55
 158  0.250  0.958  0.333- 442 1.55 490 1.55 498 1.55 532 1.55
 159  0.250  0.958  0.833- 533 1.55 491 1.55 443 1.55 499 1.55
 160  0.417  0.208  0.333- 492 1.55 444 1.55 542 1.55 500 1.55
 161  0.417  0.208  0.833- 543 1.54 493 1.55 445 1.55 501 1.55
 162  0.416  0.458  0.332- 494 1.54 446 1.54 502 1.55 544 1.55
 163  0.417  0.458  0.833- 495 1.54 447 1.55 503 1.55 545 1.56
 164  0.417  0.708  0.333- 496 1.55 504 1.55 546 1.55 448 1.55
 165  0.417  0.708  0.833- 449 1.55 547 1.55 497 1.55 505 1.55
 166  0.417  0.958  0.333- 450 1.55 498 1.55 540 1.55 506 1.55
 167  0.417  0.958  0.833- 541 1.55 451 1.55 499 1.55 507 1.55
 168  0.583  0.208  0.333- 508 1.55 452 1.55 550 1.55 500 1.55
 169  0.583  0.208  0.833- 551 1.54 509 1.55 453 1.55 501 1.55
 170  0.584  0.458  0.332- 510 1.54 454 1.54 502 1.55 552 1.55
 171  0.583  0.458  0.833- 511 1.54 455 1.55 503 1.55 553 1.56
 172  0.583  0.708  0.333- 512 1.55 504 1.55 554 1.55 456 1.55
 173  0.583  0.708  0.833- 457 1.55 555 1.55 513 1.55 505 1.55
 174  0.583  0.958  0.333- 458 1.55 514 1.55 548 1.55 506 1.55
 175  0.583  0.958  0.833- 549 1.55 459 1.55 515 1.55 507 1.55
 176  0.750  0.208  0.333- 460 1.55 516 1.55 558 1.55 508 1.55
 177  0.750  0.208  0.833- 517 1.55 461 1.55 509 1.55 559 1.55
 178  0.750  0.458  0.333- 560 1.55 510 1.55 518 1.55 462 1.55
 179  0.750  0.458  0.833- 463 1.55 519 1.55 561 1.55 511 1.55
 180  0.750  0.708  0.333- 464 1.55 520 1.55 512 1.55 562 1.55
 181  0.750  0.708  0.833- 513 1.55 465 1.55 563 1.55 521 1.55
 182  0.750  0.958  0.333- 466 1.55 522 1.55 514 1.55 556 1.55
 183  0.750  0.958  0.833- 557 1.55 523 1.55 467 1.55 515 1.55
 184  0.917  0.208  0.333- 468 1.55 566 1.55 516 1.55 476 1.55
 185  0.917  0.208  0.833- 469 1.55 517 1.55 477 1.55 567 1.55
 186  0.917  0.458  0.333- 470 1.55 568 1.55 518 1.55 478 1.55
 187  0.917  0.458  0.833- 471 1.55 569 1.55 479 1.55 519 1.55
 188  0.917  0.708  0.333- 472 1.55 520 1.55 570 1.55 480 1.55
 189  0.917  0.708  0.833- 473 1.55 521 1.55 571 1.55 481 1.55
 190  0.917  0.958  0.333- 474 1.55 522 1.55 482 1.55 564 1.55
 191  0.917  0.958  0.833- 523 1.55 475 1.55 565 1.55 483 1.55
 192  0.000  0.167  0.167- 476 1.55 372 1.55 332 1.55 287 1.55
 193  0.000  0.167  0.667- 373 1.55 333 1.55 477 1.55 288 1.55
 194  0.000  0.417  0.167- 289 1.55 374 1.55 334 1.55 478 1.55
 195  0.000  0.417  0.667- 479 1.55 290 1.55 375 1.55 335 1.55
 196  0.000  0.667  0.167- 376 1.55 336 1.55 480 1.55 291 1.55
 197  0.000  0.667  0.667- 377 1.55 337 1.55 481 1.55 292 1.55
 198  0.000  0.917  0.167- 482 1.55 378 1.55 338 1.55 285 1.55
 199  0.000  0.917  0.667- 379 1.55 339 1.55 483 1.55 286 1.55
 200  0.167  0.167  0.167- 484 1.55 332 1.55 295 1.55 340 1.55
 201  0.167  0.167  0.667- 333 1.55 485 1.55 341 1.55 296 1.55
 202  0.167  0.417  0.167- 297 1.55 334 1.55 342 1.55 486 1.55
 203  0.167  0.417  0.667- 487 1.55 298 1.55 335 1.55 343 1.55
 204  0.167  0.667  0.167- 344 1.54 488 1.55 336 1.55 299 1.55
 205  0.167  0.667  0.667- 489 1.55 337 1.55 345 1.55 300 1.55
 206  0.167  0.917  0.167- 490 1.55 338 1.55 346 1.55 293 1.55
 207  0.167  0.917  0.667- 294 1.54 347 1.55 339 1.55 491 1.55
 208  0.333  0.167  0.167- 492 1.55 340 1.55 303 1.55 348 1.55
 209  0.333  0.166  0.667- 304 1.54 341 1.54 493 1.55 349 1.55
 210  0.333  0.417  0.166- 494 1.54 342 1.54 305 1.55 350 1.55
 211  0.334  0.417  0.667- 495 1.54 351 1.55 343 1.55 306 1.55
 212  0.333  0.667  0.167- 496 1.55 307 1.55 344 1.55 352 1.55
 213  0.333  0.668  0.667- 308 1.54 345 1.55 497 1.55 353 1.55
 214  0.333  0.917  0.167- 498 1.55 301 1.55 346 1.55 354 1.55
 215  0.333  0.917  0.667- 302 1.55 499 1.55 347 1.55 355 1.55
 216  0.500  0.167  0.167- 500 1.55 311 1.55 356 1.55 348 1.55
 217  0.500  0.166  0.667- 312 1.54 357 1.55 349 1.55 501 1.55
 218  0.500  0.417  0.166- 502 1.54 358 1.55 350 1.55 313 1.55
 219  0.500  0.667  0.166- 504 1.54 314 1.54 360 1.55 352 1.55
 220  0.500  0.667  0.667- 315 1.54 505 1.54 361 1.55 353 1.55
 221  0.500  0.917  0.167- 506 1.55 309 1.55 362 1.55 354 1.55
 222  0.500  0.917  0.667- 310 1.54 363 1.55 355 1.55 507 1.55
 223  0.667  0.167  0.167- 508 1.55 364 1.55 318 1.55 356 1.55
 224  0.667  0.166  0.667- 319 1.54 365 1.54 509 1.55 357 1.55
 225  0.667  0.417  0.166- 510 1.54 366 1.54 320 1.55 358 1.55
 226  0.666  0.417  0.667- 511 1.54 359 1.55 367 1.55 321 1.55
 227  0.667  0.667  0.167- 512 1.55 322 1.55 368 1.55 360 1.55
 228  0.667  0.668  0.667- 323 1.54 369 1.55 513 1.55 361 1.55
 229  0.667  0.917  0.167- 514 1.55 316 1.55 370 1.55 362 1.55
 230  0.667  0.917  0.667- 317 1.55 515 1.55 371 1.55 363 1.55
 231  0.833  0.167  0.167- 516 1.55 372 1.55 326 1.55 364 1.55
 232  0.833  0.167  0.667- 373 1.55 517 1.55 365 1.55 327 1.55
 233  0.833  0.417  0.167- 328 1.55 374 1.55 366 1.55 518 1.55
 234  0.833  0.417  0.667- 519 1.55 329 1.55 375 1.55 367 1.55
 235  0.833  0.667  0.167- 368 1.54 520 1.55 376 1.55 330 1.55
 236  0.833  0.667  0.667- 521 1.55 377 1.55 369 1.55 331 1.55
 237  0.833  0.917  0.167- 522 1.55 378 1.55 370 1.55 324 1.55
 238  0.833  0.917  0.667- 325 1.54 371 1.55 379 1.55 523 1.55
 239  0.083  0.042  0.167- 524 1.55 293 1.55 285 1.55 332 1.55
 240  0.083  0.042  0.667- 294 1.55 286 1.55 525 1.55 333 1.55
 241  0.083  0.292  0.167- 334 1.55 526 1.55 295 1.55 287 1.55
 242  0.083  0.292  0.667- 527 1.55 296 1.55 335 1.55 288 1.55
 243  0.083  0.542  0.167- 528 1.55 336 1.55 297 1.55 289 1.55
 244  0.083  0.542  0.667- 290 1.55 298 1.55 337 1.55 529 1.55
 245  0.083  0.792  0.167- 299 1.55 530 1.55 338 1.55 291 1.55
 246  0.083  0.792  0.667- 300 1.55 292 1.55 339 1.55 531 1.55
 247  0.250  0.042  0.167- 532 1.55 293 1.55 340 1.55 301 1.55
 248  0.250  0.042  0.667- 341 1.55 294 1.55 533 1.55 302 1.55
 249  0.250  0.292  0.167- 295 1.55 303 1.55 534 1.55 342 1.55
 250  0.250  0.292  0.667- 535 1.55 296 1.55 304 1.55 343 1.55
 251  0.250  0.542  0.167- 536 1.55 297 1.55 344 1.55 305 1.55
 252  0.250  0.542  0.667- 298 1.54 537 1.55 345 1.55 306 1.57
 253  0.250  0.792  0.167- 538 1.55 307 1.55 346 1.55 299 1.55
 254  0.250  0.792  0.667- 308 1.54 347 1.54 300 1.55 539 1.55
 255  0.417  0.042  0.167- 348 1.55 540 1.55 301 1.55 309 1.55
 256  0.417  0.042  0.667- 349 1.54 302 1.55 310 1.55 541 1.55
 257  0.417  0.292  0.167- 542 1.55 303 1.55 311 1.55 350 1.55
 258  0.416  0.291  0.666- 304 1.54 351 1.54 312 1.55 543 1.55
 259  0.417  0.542  0.166- 544 1.54 305 1.55 352 1.55 313 1.55
 260  0.417  0.792  0.167- 354 1.55 307 1.55 314 1.55 546 1.55
 261  0.417  0.792  0.667- 355 1.54 547 1.55 308 1.55 315 1.55
 262  0.583  0.042  0.167- 356 1.55 548 1.55 316 1.55 309 1.55
 263  0.583  0.042  0.667- 357 1.54 317 1.55 310 1.55 549 1.55
 264  0.583  0.292  0.167- 550 1.55 318 1.55 311 1.55 358 1.55
 265  0.584  0.291  0.666- 319 1.54 359 1.54 312 1.55 551 1.55
 266  0.583  0.542  0.166- 552 1.54 320 1.55 360 1.55 313 1.55
 267  0.583  0.792  0.167- 362 1.55 322 1.55 314 1.55 554 1.55
 268  0.583  0.792  0.667- 363 1.54 555 1.55 323 1.55 315 1.55
 269  0.750  0.042  0.167- 556 1.55 324 1.55 364 1.55 316 1.55
 270  0.750  0.042  0.667- 365 1.55 325 1.55 557 1.55 317 1.55
 271  0.750  0.292  0.167- 326 1.55 318 1.55 558 1.55 366 1.55
 272  0.750  0.292  0.667- 559 1.55 327 1.55 319 1.55 367 1.55
 273  0.750  0.542  0.167- 560 1.55 328 1.55 368 1.55 320 1.55
 274  0.750  0.542  0.667- 329 1.54 561 1.55 369 1.55 321 1.57
 275  0.750  0.792  0.167- 562 1.55 322 1.55 370 1.55 330 1.55
 276  0.750  0.792  0.667- 323 1.54 371 1.54 331 1.55 563 1.55
 277  0.917  0.042  0.167- 564 1.55 324 1.55 285 1.55 372 1.55
 278  0.917  0.042  0.667- 325 1.55 286 1.55 565 1.55 373 1.55
 279  0.917  0.292  0.167- 374 1.55 566 1.55 326 1.55 287 1.55
 280  0.917  0.292  0.667- 567 1.55 327 1.55 375 1.55 288 1.55
 281  0.917  0.542  0.167- 568 1.55 376 1.55 328 1.55 289 1.55
 282  0.917  0.542  0.667- 290 1.55 329 1.55 377 1.55 569 1.55
 283  0.917  0.792  0.167- 330 1.55 570 1.55 378 1.55 291 1.55
 284  0.917  0.792  0.667- 331 1.55 292 1.55 379 1.55 571 1.55
 285  0.000  0.000  0.125-   1 1.55 277 1.55 239 1.55 198 1.55
 286  0.000  0.000  0.625-   2 1.55 278 1.55 240 1.55 199 1.55
 287  0.000  0.250  0.125-   3 1.55 192 1.55 279 1.55 241 1.55
 288  0.000  0.250  0.625-   4 1.55 193 1.55 280 1.55 242 1.55
 289  0.000  0.500  0.125-   5 1.55 194 1.55 281 1.55 243 1.55
 290  0.000  0.500  0.625- 282 1.55 244 1.55   6 1.55 195 1.55
 291  0.000  0.750  0.125-   7 1.55 196 1.55 283 1.55 245 1.55
 292  0.000  0.750  0.625-   8 1.55 284 1.55 246 1.55 197 1.55
 293  0.167  1.000  0.125-   9 1.55 239 1.55 247 1.55 206 1.55
 294  0.167  1.000  0.625- 207 1.54 248 1.55 240 1.55  10 1.55
 295  0.167  0.250  0.125- 249 1.55  11 1.55 200 1.55 241 1.55
 296  0.167  0.250  0.625-  12 1.55 242 1.55 250 1.55 201 1.55
 297  0.167  0.500  0.125-  13 1.55 251 1.55 202 1.55 243 1.55
 298  0.167  0.500  0.625- 252 1.54  14 1.55 244 1.55 203 1.55
 299  0.167  0.750  0.125- 245 1.55  15 1.55 253 1.55 204 1.55
 300  0.167  0.750  0.625- 246 1.55  16 1.55 254 1.55 205 1.55
 301  0.333  1.000  0.125-  17 1.55 214 1.55 255 1.55 247 1.55
 302  0.333  1.000  0.625- 215 1.55 256 1.55  18 1.55 248 1.55
 303  0.333  0.250  0.125-  19 1.55 257 1.55 208 1.55 249 1.55
 304  0.333  0.249  0.625- 258 1.54 209 1.54  20 1.55 250 1.55
 305  0.333  0.500  0.125-  21 1.54 259 1.55 210 1.55 251 1.55
 306  0.336  0.501  0.626- 574 1.51  22 1.55 211 1.55 252 1.57
 307  0.333  0.750  0.125-  23 1.55 260 1.55 253 1.55 212 1.55
 308  0.333  0.750  0.625- 213 1.54 254 1.54  24 1.55 261 1.55
 309  0.500  1.000  0.125-  25 1.55 221 1.55 262 1.55 255 1.55
 310  0.500  1.000  0.625- 222 1.54  26 1.55 263 1.55 256 1.55
 311  0.500  0.250  0.125-  27 1.54 216 1.55 264 1.55 257 1.55
 312  0.500  0.249  0.625- 217 1.54  28 1.55 265 1.55 258 1.55
 313  0.500  0.500  0.125-  29 1.54 266 1.55 259 1.55 218 1.55
 314  0.500  0.750  0.125- 219 1.54  30 1.54 267 1.55 260 1.55
 315  0.500  0.750  0.625- 220 1.54  31 1.55 268 1.55 261 1.55
 316  0.667  1.000  0.125-  32 1.55 229 1.55 262 1.55 269 1.55
 317  0.667  1.000  0.625- 230 1.55 263 1.55  33 1.55 270 1.55
 318  0.667  0.250  0.125-  34 1.55 264 1.55 223 1.55 271 1.55
 319  0.667  0.249  0.625- 265 1.54 224 1.54  35 1.55 272 1.55
 320  0.667  0.500  0.125-  36 1.54 266 1.55 225 1.55 273 1.55
 321  0.664  0.501  0.626- 575 1.51  37 1.55 226 1.55 274 1.57
 322  0.667  0.750  0.125-  38 1.55 267 1.55 275 1.55 227 1.55
 323  0.667  0.750  0.625- 228 1.54 276 1.54  39 1.55 268 1.55
 324  0.833  1.000  0.125-  40 1.55 277 1.55 269 1.55 237 1.55
 325  0.833  1.000  0.625- 238 1.54 270 1.55 278 1.55  41 1.55
 326  0.833  0.250  0.125- 271 1.55  42 1.55 231 1.55 279 1.55
 327  0.833  0.250  0.625-  43 1.55 280 1.55 272 1.55 232 1.55
 328  0.833  0.500  0.125-  44 1.55 273 1.55 233 1.55 281 1.55
 329  0.833  0.500  0.625- 274 1.54  45 1.55 282 1.55 234 1.55
 330  0.833  0.750  0.125- 283 1.55  46 1.55 275 1.55 235 1.55
 331  0.833  0.750  0.625- 284 1.55  47 1.55 276 1.55 236 1.55
 332  0.083  0.125  0.125-  48 1.55 192 1.55 200 1.55 239 1.55
 333  0.083  0.125  0.625-  49 1.55 193 1.55 201 1.55 240 1.55
 334  0.083  0.375  0.125- 241 1.55 202 1.55  50 1.55 194 1.55
 335  0.083  0.375  0.625-  51 1.55 242 1.55 195 1.55 203 1.55
 336  0.083  0.625  0.125- 196 1.55  52 1.55 243 1.55 204 1.55
 337  0.083  0.625  0.625-  53 1.55 197 1.55 244 1.55 205 1.55
 338  0.083  0.875  0.125-  54 1.55 198 1.55 206 1.55 245 1.55
 339  0.083  0.875  0.625- 199 1.55  55 1.55 207 1.55 246 1.55
 340  0.250  0.125  0.125-  56 1.55 208 1.55 247 1.55 200 1.55
 341  0.250  0.125  0.625- 209 1.54 248 1.55  57 1.55 201 1.55
 342  0.250  0.375  0.125- 210 1.54  58 1.54 249 1.55 202 1.55
 343  0.251  0.375  0.625-  59 1.55 203 1.55 250 1.55 211 1.55
 344  0.250  0.625  0.125-  60 1.54 204 1.54 251 1.55 212 1.55
 345  0.250  0.625  0.625-  61 1.55 205 1.55 252 1.55 213 1.55
 346  0.250  0.875  0.125-  62 1.55 253 1.55 206 1.55 214 1.55
 347  0.250  0.875  0.625- 254 1.54 207 1.55  63 1.55 215 1.55
 348  0.417  0.125  0.125-  64 1.55 255 1.55 216 1.55 208 1.55
 349  0.417  0.125  0.625- 256 1.54 217 1.55  65 1.55 209 1.55
 350  0.417  0.375  0.125-  66 1.54 218 1.55 210 1.55 257 1.55
 351  0.417  0.374  0.626- 572 1.52 258 1.54 211 1.55  67 1.55
 352  0.417  0.625  0.125-  68 1.54 259 1.55 219 1.55 212 1.55
 353  0.417  0.625  0.626- 574 1.49 220 1.55  69 1.55 213 1.55
 354  0.417  0.875  0.125-  70 1.55 260 1.55 221 1.55 214 1.55
 355  0.417  0.875  0.625- 261 1.54  71 1.55 222 1.55 215 1.55
 356  0.583  0.125  0.125-  72 1.55 262 1.55 216 1.55 223 1.55
 357  0.583  0.125  0.625- 263 1.54 217 1.55  73 1.55 224 1.55
 358  0.583  0.375  0.125-  74 1.54 218 1.55 225 1.55 264 1.55
 359  0.583  0.374  0.626- 572 1.52 265 1.54 226 1.55  75 1.55
 360  0.583  0.625  0.125-  76 1.54 266 1.55 219 1.55 227 1.55
 361  0.583  0.625  0.626- 575 1.49 220 1.55  77 1.55 228 1.55
 362  0.583  0.875  0.125-  78 1.55 267 1.55 221 1.55 229 1.55
 363  0.583  0.875  0.625- 268 1.54  79 1.55 222 1.55 230 1.55
 364  0.750  0.125  0.125-  80 1.55 223 1.55 269 1.55 231 1.55
 365  0.750  0.125  0.625- 224 1.54 270 1.55  81 1.55 232 1.55
 366  0.750  0.375  0.125- 225 1.54  82 1.54 271 1.55 233 1.55
 367  0.749  0.375  0.625-  83 1.55 234 1.55 272 1.55 226 1.55
 368  0.750  0.625  0.125-  84 1.54 235 1.54 273 1.55 227 1.55
 369  0.750  0.625  0.625-  85 1.55 236 1.55 274 1.55 228 1.55
 370  0.750  0.875  0.125-  86 1.55 275 1.55 237 1.55 229 1.55
 371  0.750  0.875  0.625- 276 1.54 238 1.55  87 1.55 230 1.55
 372  0.917  0.125  0.125-  88 1.55 192 1.55 231 1.55 277 1.55
 373  0.917  0.125  0.625-  89 1.55 193 1.55 232 1.55 278 1.55
 374  0.917  0.375  0.125- 279 1.55 233 1.55  90 1.55 194 1.55
 375  0.917  0.375  0.625-  91 1.55 280 1.55 195 1.55 234 1.55
 376  0.917  0.625  0.125- 196 1.55  92 1.55 281 1.55 235 1.55
 377  0.917  0.625  0.625-  93 1.55 197 1.55 282 1.55 236 1.55
 378  0.917  0.875  0.125-  94 1.55 198 1.55 237 1.55 283 1.55
 379  0.917  0.875  0.625- 199 1.55  95 1.55 238 1.55 284 1.55
 380  0.000  0.083  0.458-  96 1.55  89 1.55  49 1.55   2 1.55
 381  0.000  0.083  0.958-  88 1.55  48 1.55  97 1.55   1 1.55
 382  0.000  0.333  0.458-  98 1.55   4 1.55  91 1.55  51 1.55
 383  0.000  0.333  0.958-  99 1.55  90 1.55  50 1.55   3 1.55
 384  0.000  0.583  0.458-   6 1.55 100 1.55  93 1.55  53 1.55
 385  0.000  0.583  0.958-  92 1.55  52 1.55 101 1.55   5 1.55
 386  0.000  0.833  0.458- 102 1.55  95 1.55  55 1.55   8 1.55
 387  0.000  0.833  0.958-  94 1.55  54 1.55 103 1.55   7 1.55
 388  0.167  0.083  0.458- 104 1.55  57 1.55  49 1.55  10 1.55
 389  0.167  0.083  0.958-  56 1.55   9 1.55 105 1.55  48 1.55
 390  0.167  0.333  0.458- 106 1.55  12 1.55  51 1.55  59 1.55
 391  0.167  0.333  0.958-  58 1.55 107 1.55  11 1.55  50 1.55
 392  0.167  0.583  0.458-  14 1.55  61 1.55 108 1.55  53 1.55
 393  0.167  0.583  0.958-  52 1.55  13 1.55 109 1.55  60 1.55
 394  0.167  0.833  0.458- 110 1.55  63 1.55  16 1.55  55 1.55
 395  0.167  0.833  0.958-  54 1.55 111 1.55  15 1.55  62 1.55
 396  0.333  0.083  0.458- 112 1.55  65 1.55  57 1.55  18 1.55
 397  0.333  0.083  0.958-  17 1.55 113 1.55  64 1.55  56 1.55
 398  0.334  0.334  0.458-  59 1.55 114 1.55  20 1.55  67 1.55
 399  0.333  0.333  0.958- 115 1.55  66 1.55  58 1.55  19 1.55
 400  0.334  0.583  0.459-  69 1.54  22 1.54  61 1.55 116 1.55
 401  0.333  0.584  0.959- 117 1.54  60 1.54  68 1.55  21 1.55
 402  0.333  0.833  0.458- 118 1.55  71 1.55  24 1.55  63 1.55
 403  0.333  0.833  0.958-  23 1.55 119 1.55  62 1.55  70 1.55
 404  0.500  0.083  0.458- 120 1.55  26 1.55  73 1.55  65 1.55
 405  0.500  0.083  0.958-  25 1.55 121 1.55  72 1.55  64 1.55
 406  0.500  0.333  0.458-  75 1.54  67 1.54  28 1.55 122 1.55
 407  0.500  0.333  0.959- 123 1.54  27 1.54  74 1.55  66 1.55
 408  0.500  0.581  0.457- 576 1.48 124 1.54  77 1.56  69 1.56
 409  0.500  0.583  0.958- 125 1.54  29 1.55  76 1.55  68 1.55
 410  0.500  0.833  0.458- 126 1.55  79 1.55  71 1.55  31 1.55
 411  0.500  0.833  0.958-  30 1.55 127 1.55  78 1.55  70 1.55
 412  0.667  0.083  0.458- 128 1.55  73 1.55  81 1.55  33 1.55
 413  0.667  0.083  0.958-  32 1.55 129 1.55  72 1.55  80 1.55
 414  0.666  0.334  0.458-  83 1.55 130 1.55  35 1.55  75 1.55
 415  0.667  0.333  0.958- 131 1.55  74 1.55  82 1.55  34 1.55
 416  0.666  0.583  0.459-  77 1.54  37 1.54  85 1.55 132 1.55
 417  0.667  0.584  0.959- 133 1.54  84 1.54  76 1.55  36 1.55
 418  0.667  0.833  0.458- 134 1.55  79 1.55  39 1.55  87 1.55
 419  0.667  0.833  0.958-  38 1.55 135 1.55  86 1.55  78 1.55
 420  0.833  0.083  0.458- 136 1.55  81 1.55  89 1.55  41 1.55
 421  0.833  0.083  0.958-  80 1.55  40 1.55 137 1.55  88 1.55
 422  0.833  0.333  0.458- 138 1.55  43 1.55  91 1.55  83 1.55
 423  0.833  0.333  0.958-  82 1.55 139 1.55  42 1.55  90 1.55
 424  0.833  0.583  0.458-  45 1.55  85 1.55 140 1.55  93 1.55
 425  0.833  0.583  0.958-  92 1.55  44 1.55 141 1.55  84 1.55
 426  0.833  0.833  0.458- 142 1.55  87 1.55  47 1.55  95 1.55
 427  0.833  0.833  0.958-  94 1.55 143 1.55  46 1.55  86 1.55
 428  0.083  0.208  0.458- 144 1.55  49 1.55   4 1.55  12 1.55
 429  0.083  0.208  0.958-  11 1.55 145 1.55  48 1.55   3 1.55
 430  0.084  0.458  0.458-  51 1.55 146 1.55   6 1.55  14 1.55
 431  0.083  0.458  0.958-  13 1.55 147 1.55  50 1.55   5 1.55
 432  0.083  0.708  0.458- 148 1.55  16 1.55  53 1.55   8 1.55
 433  0.083  0.708  0.958-  15 1.55   7 1.55 149 1.55  52 1.55
 434  0.083  0.958  0.458- 150 1.55  10 1.55  55 1.55   2 1.55
 435  0.083  0.958  0.958-   9 1.55   1 1.55 151 1.55  54 1.55
 436  0.250  0.208  0.458- 152 1.55  12 1.55  20 1.55  57 1.55
 437  0.250  0.208  0.958-  19 1.55 153 1.55  56 1.55  11 1.55
 438  0.251  0.458  0.459-  59 1.54 154 1.55  14 1.55  22 1.56
 439  0.250  0.458  0.958- 155 1.55  21 1.55  58 1.55  13 1.55
 440  0.250  0.708  0.458-  24 1.55  61 1.55 156 1.55  16 1.55
 441  0.250  0.708  0.958-  15 1.55 157 1.55  23 1.55  60 1.55
 442  0.250  0.958  0.458- 158 1.55  18 1.55  63 1.55  10 1.55
 443  0.250  0.958  0.958-  62 1.55 159 1.55  17 1.55   9 1.55
 444  0.417  0.208  0.458-  28 1.55  20 1.55 160 1.55  65 1.55
 445  0.417  0.208  0.958-  64 1.55 161 1.55  19 1.55  27 1.55
 446  0.419  0.459  0.456- 576 1.48 162 1.54  22 1.56  67 1.56
 447  0.417  0.458  0.958-  29 1.55 163 1.55  21 1.55  66 1.55
 448  0.417  0.708  0.459-  31 1.54 164 1.55  24 1.55  69 1.56
 449  0.417  0.708  0.958- 165 1.55  68 1.55  23 1.55  30 1.55
 450  0.417  0.958  0.458- 166 1.55  18 1.55  26 1.55  71 1.55
 451  0.417  0.958  0.958-  70 1.55 167 1.55  17 1.55  25 1.55
 452  0.583  0.208  0.458-  28 1.55  35 1.55 168 1.55  73 1.55
 453  0.583  0.208  0.958-  72 1.55 169 1.55  34 1.55  27 1.55
 454  0.581  0.459  0.456- 576 1.48 170 1.54  37 1.56  75 1.56
 455  0.583  0.458  0.958-  29 1.55 171 1.55  36 1.55  74 1.55
 456  0.583  0.708  0.459-  31 1.54 172 1.55  39 1.55  77 1.56
 457  0.583  0.708  0.958- 173 1.55  76 1.55  38 1.55  30 1.55
 458  0.583  0.958  0.458- 174 1.55  33 1.55  26 1.55  79 1.55
 459  0.583  0.958  0.958-  78 1.55 175 1.55  32 1.55  25 1.55
 460  0.750  0.208  0.458- 176 1.55  43 1.55  35 1.55  81 1.55
 461  0.750  0.208  0.958-  34 1.55 177 1.55  80 1.55  42 1.55
 462  0.749  0.458  0.459-  83 1.54 178 1.55  45 1.55  37 1.56
 463  0.750  0.458  0.958- 179 1.55  36 1.55  82 1.55  44 1.55
 464  0.750  0.708  0.458-  39 1.55  85 1.55 180 1.55  47 1.55
 465  0.750  0.708  0.958-  46 1.55 181 1.55  38 1.55  84 1.55
 466  0.750  0.958  0.458- 182 1.55  33 1.55  87 1.55  41 1.55
 467  0.750  0.958  0.958-  86 1.55 183 1.55  32 1.55  40 1.55
 468  0.917  0.208  0.458- 184 1.55  89 1.55   4 1.55  43 1.55
 469  0.917  0.208  0.958-  42 1.55 185 1.55  88 1.55   3 1.55
 470  0.916  0.458  0.458-  91 1.55 186 1.55   6 1.55  45 1.55
 471  0.917  0.458  0.958-  44 1.55 187 1.55  90 1.55   5 1.55
 472  0.917  0.708  0.458- 188 1.55  47 1.55  93 1.55   8 1.55
 473  0.917  0.708  0.958-  46 1.55   7 1.55 189 1.55  92 1.55
 474  0.917  0.958  0.458- 190 1.55  41 1.55  95 1.55   2 1.55
 475  0.917  0.958  0.958-  40 1.55   1 1.55 191 1.55  94 1.55
 476  0.000  0.167  0.292- 192 1.55  96 1.55 184 1.55 144 1.55
 477  0.000  0.167  0.792- 193 1.55  97 1.55 185 1.55 145 1.55
 478  0.000  0.417  0.292-  98 1.55 194 1.55 186 1.55 146 1.55
 479  0.000  0.417  0.792- 195 1.55  99 1.55 187 1.55 147 1.55
 480  0.000  0.667  0.292- 196 1.55 100 1.55 188 1.55 148 1.55
 481  0.000  0.667  0.792- 197 1.55 101 1.55 189 1.55 149 1.55
 482  0.000  0.917  0.292- 198 1.55 190 1.55 150 1.55 102 1.55
 483  0.000  0.917  0.792- 191 1.55 151 1.55 199 1.55 103 1.55
 484  0.167  0.167  0.292- 200 1.55 152 1.55 144 1.55 104 1.55
 485  0.167  0.167  0.792- 153 1.55 201 1.55 145 1.55 105 1.55
 486  0.167  0.417  0.292- 106 1.55 146 1.55 202 1.55 154 1.55
 487  0.167  0.417  0.792- 203 1.55 155 1.55 107 1.55 147 1.55
 488  0.167  0.667  0.292- 204 1.55 148 1.55 156 1.55 108 1.55
 489  0.167  0.667  0.792- 205 1.55 149 1.55 109 1.55 157 1.55
 490  0.167  0.917  0.292- 206 1.55 158 1.55 150 1.55 110 1.55
 491  0.167  0.917  0.792- 151 1.55 111 1.55 159 1.55 207 1.55
 492  0.333  0.167  0.292- 208 1.55 160 1.55 112 1.55 152 1.55
 493  0.333  0.166  0.792- 113 1.54 161 1.55 153 1.55 209 1.55
 494  0.333  0.417  0.291- 162 1.54 210 1.54 114 1.55 154 1.55
 495  0.334  0.417  0.791- 163 1.54 211 1.54 155 1.55 115 1.55
 496  0.333  0.667  0.292- 116 1.55 212 1.55 164 1.55 156 1.55
 497  0.333  0.667  0.792- 157 1.55 165 1.55 213 1.55 117 1.55
 498  0.333  0.917  0.292- 214 1.55 166 1.55 118 1.55 158 1.55
 499  0.333  0.917  0.792- 119 1.55 159 1.55 167 1.55 215 1.55
 500  0.500  0.167  0.292- 216 1.55 120 1.55 168 1.55 160 1.55
 501  0.500  0.166  0.792- 121 1.55 217 1.55 169 1.55 161 1.55
 502  0.500  0.416  0.291- 218 1.54 122 1.55 170 1.55 162 1.55
 503  0.500  0.415  0.792- 572 1.52 123 1.54 171 1.55 163 1.55
 504  0.500  0.667  0.291- 124 1.54 219 1.54 172 1.55 164 1.55
 505  0.500  0.667  0.792- 125 1.54 220 1.54 173 1.55 165 1.55
 506  0.500  0.917  0.292- 221 1.55 126 1.55 174 1.55 166 1.55
 507  0.500  0.917  0.792- 127 1.55 222 1.55 175 1.55 167 1.55
 508  0.667  0.167  0.292- 223 1.55 168 1.55 128 1.55 176 1.55
 509  0.667  0.166  0.792- 129 1.54 169 1.55 177 1.55 224 1.55
 510  0.667  0.417  0.291- 170 1.54 225 1.54 130 1.55 178 1.55
 511  0.666  0.417  0.791- 171 1.54 226 1.54 179 1.55 131 1.55
 512  0.667  0.667  0.292- 132 1.55 227 1.55 172 1.55 180 1.55
 513  0.667  0.667  0.792- 181 1.55 173 1.55 228 1.55 133 1.55
 514  0.667  0.917  0.292- 229 1.55 174 1.55 134 1.55 182 1.55
 515  0.667  0.917  0.792- 135 1.55 183 1.55 175 1.55 230 1.55
 516  0.833  0.167  0.292- 231 1.55 176 1.55 184 1.55 136 1.55
 517  0.833  0.167  0.792- 177 1.55 232 1.55 185 1.55 137 1.55
 518  0.833  0.417  0.292- 138 1.55 186 1.55 233 1.55 178 1.55
 519  0.833  0.417  0.792- 234 1.55 179 1.55 139 1.55 187 1.55
 520  0.833  0.667  0.292- 235 1.55 188 1.55 180 1.55 140 1.55
 521  0.833  0.667  0.792- 236 1.55 189 1.55 141 1.55 181 1.55
 522  0.833  0.917  0.292- 237 1.55 182 1.55 190 1.55 142 1.55
 523  0.833  0.917  0.792- 191 1.55 143 1.55 183 1.55 238 1.55
 524  0.083  0.042  0.292- 239 1.55 104 1.55 150 1.55  96 1.55
 525  0.083  0.042  0.792- 105 1.55 240 1.55 151 1.55  97 1.55
 526  0.083  0.292  0.292- 241 1.55 144 1.55  98 1.55 106 1.55
 527  0.083  0.292  0.792- 242 1.55 107 1.55 145 1.55  99 1.55
 528  0.083  0.542  0.292- 243 1.55 146 1.55 108 1.55 100 1.55
 529  0.083  0.542  0.792- 147 1.55 109 1.55 244 1.55 101 1.55
 530  0.083  0.792  0.292- 245 1.55 110 1.55 102 1.55 148 1.55
 531  0.083  0.792  0.792- 111 1.55 246 1.55 103 1.55 149 1.55
 532  0.250  0.042  0.292- 247 1.55 112 1.55 104 1.55 158 1.55
 533  0.250  0.042  0.792- 159 1.55 113 1.55 105 1.55 248 1.55
 534  0.250  0.292  0.292- 114 1.55 152 1.55 106 1.55 249 1.55
 535  0.250  0.292  0.792- 250 1.55 115 1.55 107 1.55 153 1.55
 536  0.250  0.542  0.292- 116 1.55 154 1.55 251 1.55 108 1.55
 537  0.250  0.542  0.792- 155 1.55 109 1.55 252 1.55 117 1.55
 538  0.250  0.792  0.292- 253 1.55 118 1.55 110 1.55 156 1.55
 539  0.250  0.792  0.792- 111 1.55 119 1.55 157 1.55 254 1.55
 540  0.417  0.042  0.292- 255 1.55 166 1.55 112 1.55 120 1.55
 541  0.417  0.042  0.792- 167 1.55 256 1.55 113 1.55 121 1.55
 542  0.417  0.292  0.292- 122 1.55 257 1.55 114 1.55 160 1.55
 543  0.417  0.291  0.792- 161 1.54 115 1.55 123 1.55 258 1.55
 544  0.417  0.542  0.291- 259 1.54 116 1.55 124 1.55 162 1.55
 545  0.417  0.542  0.791- 574 1.49 125 1.55 117 1.55 163 1.56
 546  0.417  0.792  0.292- 118 1.55 126 1.55 260 1.55 164 1.55
 547  0.417  0.792  0.792- 165 1.55 261 1.55 119 1.55 127 1.55
 548  0.583  0.042  0.292- 262 1.55 174 1.55 128 1.55 120 1.55
 549  0.583  0.042  0.792- 175 1.55 263 1.55 129 1.55 121 1.55
 550  0.583  0.292  0.292- 122 1.55 264 1.55 130 1.55 168 1.55
 551  0.583  0.291  0.792- 169 1.54 131 1.55 123 1.55 265 1.55
 552  0.583  0.542  0.291- 266 1.54 132 1.55 124 1.55 170 1.55
 553  0.583  0.542  0.791- 575 1.49 125 1.55 133 1.55 171 1.56
 554  0.583  0.792  0.292- 134 1.55 126 1.55 267 1.55 172 1.55
 555  0.583  0.792  0.792- 173 1.55 268 1.55 135 1.55 127 1.55
 556  0.750  0.042  0.292- 269 1.55 128 1.55 136 1.55 182 1.55
 557  0.750  0.042  0.792- 183 1.55 129 1.55 137 1.55 270 1.55
 558  0.750  0.292  0.292- 130 1.55 176 1.55 138 1.55 271 1.55
 559  0.750  0.292  0.792- 272 1.55 131 1.55 139 1.55 177 1.55
 560  0.750  0.542  0.292- 132 1.55 178 1.55 273 1.55 140 1.55
 561  0.750  0.542  0.792- 179 1.55 141 1.55 274 1.55 133 1.55
 562  0.750  0.792  0.292- 275 1.55 134 1.55 142 1.55 180 1.55
 563  0.750  0.792  0.792- 143 1.55 135 1.55 181 1.55 276 1.55
 564  0.917  0.042  0.292- 277 1.55 136 1.55 190 1.55  96 1.55
 565  0.917  0.042  0.792- 137 1.55 278 1.55 191 1.55  97 1.55
 566  0.917  0.292  0.292- 279 1.55 184 1.55  98 1.55 138 1.55
 567  0.917  0.292  0.792- 280 1.55 139 1.55 185 1.55  99 1.55
 568  0.917  0.542  0.292- 281 1.55 186 1.55 140 1.55 100 1.55
 569  0.917  0.542  0.792- 187 1.55 141 1.55 282 1.55 101 1.55
 570  0.917  0.792  0.292- 283 1.55 142 1.55 102 1.55 188 1.55
 571  0.917  0.792  0.792- 143 1.55 284 1.55 103 1.55 189 1.55
 572  0.500  0.411  0.669- 573 1.09 359 1.52 351 1.52 503 1.52
 573  0.500  0.470  0.642- 572 1.09
 574  0.412  0.546  0.671- 353 1.49 545 1.49 306 1.51
 575  0.588  0.546  0.671- 361 1.49 553 1.49 321 1.51
 576  0.500  0.500  0.488- 454 1.48 446 1.48 408 1.48
 
  LATTYP: Found a simple monoclinic cell.
 ALAT       =    12.3703241348
 B/A-ratio  =     1.2248453018
 C/A-ratio  =     1.4141600350
 COS(beta)  =    -0.0000282295
  
  Lattice vectors:
  
 A1 = (   0.0000000000,  -0.0003492082,  12.3703241299)
 A2 = (  15.1517333984,   0.0000000000,   0.0000000000)
 A3 = (   0.0000000000,  17.4936180115,   0.0000000000)


Analysis of symmetry for initial positions (statically):
=====================================================================
 Subroutine PRICEL returns:
 Original cell was already a primitive cell.
 

 Routine SETGRP: Setting up the symmetry group for a 
 simple monoclinic supercell.


 Subroutine GETGRP returns: Found  2 space group operations
 (whereof  2 operations were pure point group operations)
 out of a pool of  4 trial point group operations.


The static configuration has the point symmetry C_1h.


Analysis of symmetry for dynamics (positions and initial velocities):
=====================================================================
 Subroutine PRICEL returns:
 Original cell was already a primitive cell.
 

 Routine SETGRP: Setting up the symmetry group for a 
 simple monoclinic supercell.


 Subroutine GETGRP returns: Found  2 space group operations
 (whereof  2 operations were pure point group operations)
 out of a pool of  4 trial point group operations.


The dynamic configuration has the point symmetry C_1h.


Analysis of structural, dynamic, and magnetic symmetry:
=====================================================================
 Subroutine PRICEL returns:
 Original cell was already a primitive cell.
 

 Routine SETGRP: Setting up the symmetry group for a 
 simple monoclinic supercell.


 Subroutine GETGRP returns: Found  2 space group operations
 (whereof  2 operations were pure point group operations)
 out of a pool of  4 trial point group operations.


The overall configuration has the point symmetry C_1h.


 Subroutine INISYM returns: Found  2 space group operations
 (whereof  2 operations are pure point group operations),
 and found     1 'primitive' translations


----------------------------------------------------------------------------------------

                                     Primitive cell                                     

  volume of cell :    3278.8612

  direct lattice vectors                    reciprocal lattice vectors
    15.151733398  0.000000000  0.000000000     0.065999049  0.000000000  0.000000000
     0.000000000 17.493618012  0.000000000     0.000000000  0.057163704  0.000001614
     0.000000000 -0.000349208 12.370324130     0.000000000  0.000000000  0.080838626

  length of vectors
    15.151733398 17.493618012 12.370324135     0.065999049  0.057163704  0.080838626

  position of ions in fractional coordinates (direct lattice)
     0.000000000  0.000012592  0.000033745
     0.000000000  0.000017444  0.500008215
     0.000000000  0.250017783  0.999993622
     0.000000000  0.250065048  0.500012084
     0.000000000  0.499988924  0.000016270
     0.000000000  0.500014186  0.500087722
     0.000000000  0.749984903  0.000079625
     0.000000000  0.749960625  0.500106572
     0.166633866  0.999987100  0.000045353
     0.166664087  0.999983263  0.500017833
     0.166664228  0.249994896  0.999969118
     0.166757727  0.250102335  0.500020254
     0.166700053  0.499994752  0.999982970
     0.167140486  0.500045723  0.500150569
     0.166639988  0.750021073  0.000118575
     0.166713192  0.749942613  0.500098430
     0.333316866  0.999938407  0.000066189
     0.333335819  0.999918792  0.500031141
     0.333334129  0.249927056  0.999969838
     0.333515891  0.250109911  0.500005075
     0.333326873  0.500037493  0.999882571
     0.335075152  0.500352776  0.500482785
     0.333323049  0.750022564  0.000102412
     0.333481196  0.749723962  0.500170068
     0.500000000  0.999937672  0.000054065
     0.500000000  0.999919554  0.500038500
     0.500000000  0.249756801  0.000314127
     0.500000000  0.249864365  0.499979415
     0.500000000  0.500044644  0.999686240
     0.500000000  0.750060573  0.000007046
     0.500000000  0.749687053  0.500214480
     0.666683164  0.999938407  0.000066189
     0.666664211  0.999918792  0.500031141
     0.666665901  0.249927056  0.999969838
     0.666484139  0.250109911  0.500005075
     0.666673157  0.500037493  0.999882571
     0.664924878  0.500352776  0.500482785
     0.666676981  0.750022564  0.000102412
     0.666518834  0.749723962  0.500170068
     0.833366119  0.999987100  0.000045353
     0.833335898  0.999983263  0.500017833
     0.833335757  0.249994896  0.999969118
     0.833242258  0.250102335  0.500020254
     0.833299932  0.499994752  0.999982970
     0.832859499  0.500045723  0.500150569
     0.833359997  0.750021073  0.000118575
     0.833286793  0.749942613  0.500098430
     0.083319496  0.125009858  0.000006215
     0.083345406  0.125049885  0.499999794
     0.083346504  0.375008409  0.999970268
     0.083458025  0.375068431  0.500056091
     0.083319689  0.624987696  0.000099954
     0.083403403  0.624952907  0.500112159
     0.083304657  0.875006087  0.000071165
     0.083333693  0.874977467  0.500044410
     0.249978446  0.124950857  0.000016134
     0.250028158  0.125007027  0.500002053
     0.249988755  0.374960390  0.999808450
     0.250472124  0.375205311  0.500105712
     0.249853805  0.625093488  0.000467688
     0.250218578  0.624917319  0.500156522
     0.249967886  0.874985546  0.000075839
     0.250028589  0.874904066  0.500058273
     0.416645776  0.124878369  0.000083262
     0.416657493  0.124915172  0.500000200
     0.416674470  0.374925632  0.999780497
     0.417681569  0.375404719  0.500290581
     0.416620818  0.625097360  0.000096951
     0.417083635  0.623822347  0.500674869
     0.416660698  0.874978944  0.000065376
     0.416700996  0.874862822  0.500072640
     0.583354194  0.124878369  0.000083262
     0.583342477  0.124915172  0.500000200
     0.583325500  0.374925632  0.999780497
     0.582318401  0.375404719  0.500290581
     0.583379152  0.625097360  0.000096951
     0.582916335  0.623822347  0.500674869
     0.583339272  0.874978944  0.000065376
     0.583298974  0.874862822  0.500072640
     0.750021554  0.124950857  0.000016134
     0.749971842  0.125007027  0.500002053
     0.750011245  0.374960390  0.999808450
     0.749527876  0.375205311  0.500105712
     0.750146195  0.625093488  0.000467688
     0.749781422  0.624917319  0.500156522
     0.750032114  0.874985546  0.000075839
     0.749971411  0.874904066  0.500058273
     0.916680527  0.125009858  0.000006215
     0.916654617  0.125049885  0.499999794
     0.916653519  0.375008409  0.999970268
     0.916541998  0.375068431  0.500056091
     0.916680334  0.624987696  0.000099954
     0.916596620  0.624952907  0.500112159
     0.916695366  0.875006087  0.000071165
     0.916666330  0.874977467  0.500044410
     0.000000000  0.083360663  0.333348880
     0.000000000  0.083361805  0.833330567
     0.000000000  0.333378140  0.333393975
     0.000000000  0.333359556  0.833294258
     0.000000000  0.583307898  0.333435472
     0.000000000  0.583315678  0.833384188
     0.000000000  0.833311351  0.333411545
     0.000000000  0.833325524  0.833382684
     0.166675221  0.083333986  0.333337471
     0.166648878  0.083321437  0.833329517
     0.166776943  0.333387549  0.333394779
     0.166723217  0.333345111  0.833221098
     0.166752411  0.583294097  0.333448954
     0.166742956  0.583305499  0.833376138
     0.166685978  0.833289555  0.333409589
     0.166631289  0.833368763  0.833400262
     0.333314375  0.083277511  0.333348176
     0.333269320  0.083216696  0.833367399
     0.333399916  0.333358147  0.333166800
     0.333410231  0.333267349  0.833220362
     0.333430414  0.583286447  0.333303266
     0.333153444  0.583591210  0.834619306
     0.333352736  0.833250457  0.333415116
     0.333303180  0.833361692  0.833386259
     0.500000000  0.083252631  0.333389745
     0.500000000  0.083218978  0.833379423
     0.500000000  0.333219220  0.333089698
     0.500000000  0.332707116  0.834456155
     0.500000000  0.583688189  0.332069161
     0.500000000  0.583463211  0.833454113
     0.500000000  0.833229174  0.333440221
     0.500000000  0.833370597  0.833365425
     0.666685655  0.083277511  0.333348176
     0.666730710  0.083216696  0.833367399
     0.666600114  0.333358147  0.333166800
     0.666589799  0.333267349  0.833220362
     0.666569616  0.583286447  0.333303266
     0.666846586  0.583591210  0.834619306
     0.666647294  0.833250457  0.333415116
     0.666696850  0.833361692  0.833386259
     0.833324764  0.083333986  0.333337471
     0.833351107  0.083321437  0.833329517
     0.833223042  0.333387549  0.333394779
     0.833276768  0.333345111  0.833221098
     0.833247574  0.583294097  0.333448954
     0.833257029  0.583305499  0.833376138
     0.833314007  0.833289555  0.333409589
     0.833368696  0.833368763  0.833400262
     0.083367893  0.208380103  0.333366183
     0.083350913  0.208357393  0.833312989
     0.083409293  0.458338802  0.333423171
     0.083402539  0.458340749  0.833307825
     0.083352490  0.708303631  0.333493956
     0.083367409  0.708313181  0.833397242
     0.083348439  0.958327516  0.333377564
     0.083325811  0.958353494  0.833368296
     0.250014305  0.208345009  0.333353162
     0.249993341  0.208292104  0.833328660
     0.250232549  0.458345178  0.333360401
     0.250199802  0.458345016  0.833228521
     0.250052310  0.708283878  0.333481119
     0.250008200  0.708429825  0.833483059
     0.249999778  0.958288591  0.333405910
     0.249958860  0.958306796  0.833397328
     0.416638994  0.208275322  0.333304593
     0.416584801  0.208090359  0.833428690
     0.416233603  0.457967338  0.331758715
     0.416932782  0.458335185  0.832746562
     0.416726454  0.708185052  0.333438390
     0.416678099  0.708426953  0.833427530
     0.416654937  0.958256287  0.333407700
     0.416639026  0.958292098  0.833381859
     0.583360976  0.208275322  0.333304593
     0.583415169  0.208090359  0.833428690
     0.583766367  0.457967338  0.331758715
     0.583067188  0.458335185  0.832746562
     0.583273516  0.708185052  0.333438390
     0.583321871  0.708426953  0.833427530
     0.583345033  0.958256287  0.333407700
     0.583360944  0.958292098  0.833381859
     0.749985695  0.208345009  0.333353162
     0.750006659  0.208292104  0.833328660
     0.749767451  0.458345178  0.333360401
     0.749800198  0.458345016  0.833228521
     0.749947690  0.708283878  0.333481119
     0.749991800  0.708429825  0.833483059
     0.750000222  0.958288591  0.333405910
     0.750041140  0.958306796  0.833397328
     0.916632130  0.208380103  0.333366183
     0.916649110  0.208357393  0.833312989
     0.916590730  0.458338802  0.333423171
     0.916597484  0.458340749  0.833307825
     0.916647533  0.708303631  0.333493956
     0.916632614  0.708313181  0.833397242
     0.916651584  0.958327516  0.333377564
     0.916674212  0.958353494  0.833368296
     0.000000000  0.166700183  0.166680298
     0.000000000  0.166719904  0.666637381
     0.000000000  0.416681497  0.166701278
     0.000000000  0.416700102  0.666655816
     0.000000000  0.666659826  0.166759603
     0.000000000  0.666653308  0.666710837
     0.000000000  0.916669915  0.166723692
     0.000000000  0.916686836  0.666666821
     0.166659505  0.166671548  0.166680607
     0.166663786  0.166681593  0.666650730
     0.166703853  0.416677388  0.166663631
     0.166886395  0.416746746  0.666640148
     0.166616502  0.666679352  0.166914252
     0.166722124  0.666674793  0.666703961
     0.166646855  0.916651361  0.166738179
     0.166574988  0.916743268  0.666676700
     0.333320638  0.166611347  0.166678847
     0.333130747  0.166324218  0.666630940
     0.333186598  0.416559138  0.166189941
     0.334307271  0.416816389  0.666735915
     0.333319176  0.666677411  0.166777389
     0.333158290  0.667623348  0.666609706
     0.333322816  0.916619469  0.166750504
     0.333290034  0.916671642  0.666702503
     0.500000000  0.166554701  0.166756373
     0.500000000  0.166358826  0.666628207
     0.500000000  0.416541493  0.166070456
     0.500000000  0.666798237  0.166425831
     0.500000000  0.666721408  0.666820037
     0.500000000  0.916613498  0.166733160
     0.500000000  0.916661467  0.666687985
     0.666679392  0.166611347  0.166678847
     0.666869283  0.166324218  0.666630940
     0.666813432  0.416559138  0.166189941
     0.665692759  0.416816389  0.666735915
     0.666680854  0.666677411  0.166777389
     0.666841740  0.667623348  0.666609706
     0.666677214  0.916619469  0.166750504
     0.666709996  0.916671642  0.666702503
     0.833340480  0.166671548  0.166680607
     0.833336199  0.166681593  0.666650730
     0.833296132  0.416677388  0.166663631
     0.833113590  0.416746746  0.666640148
     0.833383483  0.666679352  0.166914252
     0.833277861  0.666674793  0.666703961
     0.833353130  0.916651361  0.166738179
     0.833424997  0.916743268  0.666676700
     0.083333769  0.041677669  0.166686000
     0.083321329  0.041706633  0.666646283
     0.083364422  0.291699694  0.166683948
     0.083368045  0.291712666  0.666627706
     0.083356071  0.541656076  0.166724495
     0.083311792  0.541653686  0.666665231
     0.083334666  0.791658695  0.166754697
     0.083325605  0.791671228  0.666699828
     0.249983217  0.041627116  0.166675756
     0.249912815  0.041570688  0.666636110
     0.250003529  0.291647792  0.166583740
     0.250118270  0.291692135  0.666603754
     0.250006133  0.541659829  0.166663655
     0.249951637  0.541574047  0.666556682
     0.249990106  0.791645121  0.166743544
     0.249852382  0.791973147  0.666663085
     0.416650730  0.041592367  0.166726624
     0.416629559  0.041550719  0.666666312
     0.416650150  0.291597439  0.166543337
     0.416096759  0.290663183  0.666477195
     0.416597512  0.541685385  0.166206744
     0.416656512  0.791630630  0.166734600
     0.416625585  0.791766618  0.666713712
     0.583349240  0.041592367  0.166726624
     0.583370411  0.041550719  0.666666312
     0.583349820  0.291597439  0.166543337
     0.583903211  0.290663183  0.666477195
     0.583402458  0.541685385  0.166206744
     0.583343458  0.791630630  0.166734600
     0.583374385  0.791766618  0.666713712
     0.750016783  0.041627116  0.166675756
     0.750087185  0.041570688  0.666636110
     0.749996471  0.291647792  0.166583740
     0.749881730  0.291692135  0.666603754
     0.749993867  0.541659829  0.166663655
     0.750048363  0.541574047  0.666556682
     0.750009894  0.791645121  0.166743544
     0.750147618  0.791973147  0.666663085
     0.916666254  0.041677669  0.166686000
     0.916678694  0.041706633  0.666646283
     0.916635601  0.291699694  0.166683948
     0.916631978  0.291712666  0.666627706
     0.916643952  0.541656076  0.166724495
     0.916688231  0.541653686  0.666665231
     0.916665357  0.791658695  0.166754697
     0.916674418  0.791671228  0.666699828
     0.000000000  0.000009793  0.125018084
     0.000000000  0.000031382  0.624985386
     0.000000000  0.250039596  0.124996518
     0.000000000  0.250063101  0.624982881
     0.000000000  0.500013419  0.125015243
     0.000000000  0.500055039  0.625048345
     0.000000000  0.749992358  0.125065109
     0.000000000  0.750004813  0.625067977
     0.166638257  0.999982239  0.125017108
     0.166585669  0.999993546  0.624996537
     0.166665982  0.250002781  0.124955310
     0.166723715  0.250078091  0.624981472
     0.166680677  0.500009655  0.124964816
     0.166717024  0.500113242  0.625094849
     0.166633274  0.750002640  0.125091039
     0.166642076  0.750048594  0.625056475
     0.333323136  0.999933728  0.125036881
     0.333303952  0.999924509  0.625010782
     0.333333079  0.249937485  0.124917571
     0.333187771  0.249451520  0.625033475
     0.333289248  0.499972279  0.124681582
     0.335596038  0.500675935  0.625718587
     0.333319267  0.749998574  0.125049522
     0.333024600  0.750410642  0.625162572
     0.500000000  0.999930942  0.125036996
     0.500000000  0.999916799  0.625027861
     0.500000000  0.249828593  0.125056516
     0.500000000  0.249476925  0.624977016
     0.500000000  0.499988681  0.124563104
     0.500000000  0.750042120  0.124878438
     0.500000000  0.749888661  0.625236653
     0.666676894  0.999933728  0.125036881
     0.666696078  0.999924509  0.625010782
     0.666666951  0.249937485  0.124917571
     0.666812259  0.249451520  0.625033475
     0.666710782  0.499972279  0.124681582
     0.664403992  0.500675935  0.625718587
     0.666680763  0.749998574  0.125049522
     0.666975430  0.750410642  0.625162572
     0.833361728  0.999982239  0.125017108
     0.833414316  0.999993546  0.624996537
     0.833334003  0.250002781  0.124955310
     0.833276270  0.250078091  0.624981472
     0.833319308  0.500009655  0.124964816
     0.833282961  0.500113242  0.625094849
     0.833366711  0.750002640  0.125091039
     0.833357909  0.750048594  0.625056475
     0.083319821  0.125015628  0.125000052
     0.083318911  0.125046704  0.624983360
     0.083345296  0.375032013  0.124989693
     0.083448639  0.375066834  0.625018467
     0.083317213  0.625007333  0.125098917
     0.083353987  0.625017491  0.625080292
     0.083309545  0.874996109  0.125055363
     0.083297894  0.875008853  0.625024513
     0.249984343  0.124963640  0.124997056
     0.249915532  0.124835886  0.624998934
     0.249950089  0.374959103  0.124699070
     0.250544060  0.375282894  0.625088130
     0.249873957  0.625073778  0.125228215
     0.250172263  0.625097448  0.625101345
     0.249973884  0.874977303  0.125057237
     0.249860607  0.875121478  0.625051800
     0.416657707  0.124896038  0.125043792
     0.416623195  0.124773229  0.625000858
     0.416620222  0.374916061  0.124565747
     0.416944821  0.373664319  0.625601237
     0.416644694  0.625088591  0.124814312
     0.416644987  0.624665598  0.626078780
     0.416660035  0.874955574  0.125054647
     0.416663236  0.874982230  0.625071962
     0.583342263  0.124896038  0.125043792
     0.583376775  0.124773229  0.625000858
     0.583379748  0.374916061  0.124565747
     0.583055149  0.373664319  0.625601237
     0.583355276  0.625088591  0.124814312
     0.583354983  0.624665598  0.626078780
     0.583339935  0.874955574  0.125054647
     0.583336734  0.874982230  0.625071962
     0.750015657  0.124963640  0.124997056
     0.750084468  0.124835886  0.624998934
     0.750049911  0.374959103  0.124699070
     0.749455940  0.375282894  0.625088130
     0.750126043  0.625073778  0.125228215
     0.749827737  0.625097448  0.625101345
     0.750026116  0.874977303  0.125057237
     0.750139393  0.875121478  0.625051800
     0.916680202  0.125015628  0.125000052
     0.916681112  0.125046704  0.624983360
     0.916654727  0.375032013  0.124989693
     0.916551384  0.375066834  0.625018467
     0.916682810  0.625007333  0.125098917
     0.916646036  0.625017491  0.625080292
     0.916690478  0.874996109  0.125055363
     0.916702129  0.875008853  0.625024513
     0.000000000  0.083376608  0.458329787
     0.000000000  0.083344910  0.958333138
     0.000000000  0.333421818  0.458372776
     0.000000000  0.333359615  0.958300652
     0.000000000  0.583325315  0.458412087
     0.000000000  0.583347070  0.958394193
     0.000000000  0.833307038  0.458386779
     0.000000000  0.833328305  0.958390720
     0.166684015  0.083349170  0.458305570
     0.166641422  0.083311904  0.958332174
     0.166920721  0.333481066  0.458385233
     0.166680359  0.333329696  0.958191232
     0.166883590  0.583315317  0.458445500
     0.166647148  0.583368041  0.958419493
     0.166687737  0.833270361  0.458381848
     0.166615340  0.833346007  0.958400243
     0.333334333  0.083267772  0.458323343
     0.333303645  0.083228978  0.958366904
     0.333820597  0.333799642  0.458235425
     0.333353784  0.333266068  0.958138311
     0.333755682  0.583213693  0.458555941
     0.332991412  0.583589664  0.958837178
     0.333438024  0.833118311  0.458357117
     0.333300364  0.833334412  0.958382810
     0.500000000  0.083244557  0.458352630
     0.500000000  0.083224904  0.958384625
     0.500000000  0.333260070  0.458240013
     0.500000000  0.332852698  0.958673996
     0.500000000  0.581343273  0.456856559
     0.500000000  0.583477634  0.958156090
     0.500000000  0.833103889  0.458415795
     0.500000000  0.833338722  0.958341547
     0.666665697  0.083267772  0.458323343
     0.666696385  0.083228978  0.958366904
     0.666179433  0.333799642  0.458235425
     0.666646246  0.333266068  0.958138311
     0.666244348  0.583213693  0.458555941
     0.667008618  0.583589664  0.958837178
     0.666562006  0.833118311  0.458357117
     0.666699666  0.833334412  0.958382810
     0.833315970  0.083349170  0.458305570
     0.833358563  0.083311904  0.958332174
     0.833079264  0.333481066  0.458385233
     0.833319626  0.333329696  0.958191232
     0.833116395  0.583315317  0.458445500
     0.833352837  0.583368041  0.958419493
     0.833312248  0.833270361  0.458381848
     0.833384645  0.833346007  0.958400243
     0.083384381  0.208414405  0.458336917
     0.083343724  0.208344346  0.958312443
     0.083570619  0.458374048  0.458387461
     0.083371351  0.458351523  0.958305138
     0.083366632  0.708303941  0.458440569
     0.083339710  0.708333304  0.958403443
     0.083343589  0.958326780  0.458345701
     0.083318236  0.958336234  0.958369956
     0.250100751  0.208449534  0.458304623
     0.249995579  0.208287104  0.958322406
     0.251034069  0.458456826  0.458518603
     0.250062991  0.458342630  0.958167103
     0.250116571  0.708212866  0.458454005
     0.249934945  0.708395354  0.958491103
     0.250016443  0.958257418  0.458364908
     0.249964360  0.958301372  0.958397185
     0.416684572  0.208283927  0.458287163
     0.416643838  0.208142329  0.958418469
     0.418576015  0.459061429  0.456333939
     0.416700837  0.458375694  0.957820594
     0.417044740  0.707620811  0.458549807
     0.416637714  0.708396358  0.958336900
     0.416665346  0.958214990  0.458378493
     0.416643215  0.958280238  0.958380170
     0.583315398  0.208283927  0.458287163
     0.583356132  0.208142329  0.958418469
     0.581423955  0.459061429  0.456333939
     0.583299133  0.458375694  0.957820594
     0.582955230  0.707620811  0.458549807
     0.583362256  0.708396358  0.958336900
     0.583334624  0.958214990  0.458378493
     0.583356755  0.958280238  0.958380170
     0.749899249  0.208449534  0.458304623
     0.750004421  0.208287104  0.958322406
     0.748965931  0.458456826  0.458518603
[...]
 196      -0.006    -0.002     0.006       0.618
 197       0.006     0.004    -0.028       0.076
 198      -0.001     0.001    -0.001      -1.331
 199      -0.002    -0.002     0.004       0.075
 200       0.002     0.001    -0.002       0.490
 201       0.003    -0.000    -0.007       0.391
 202       0.005    -0.003    -0.006       1.263
 203      -0.023     0.019     0.023       1.819
 204      -0.010     0.001    -0.019      -0.570
 205      -0.069    -0.068    -0.157      -0.011
 206       0.001     0.000    -0.002       0.368
 207      -0.016    -0.011    -0.025      -0.202
 208       0.003    -0.001    -0.004       1.133
 209       0.005     0.004    -0.012       0.084
 210       0.002    -0.002    -0.018       0.245
 211      -0.304    -0.258    -0.473      -0.096
 212       0.005     0.000    -0.019       0.222
 213      -1.727    -1.699    -2.467      -0.011
 214       0.003    -0.001    -0.003       1.057
 215       0.008    -0.007     0.010      -1.561
 216      -0.004    -0.001     0.005       0.605
 217       0.007     0.007    -0.012       0.011
 218       0.009     0.008    -0.018       0.050
 219       0.011     0.011    -0.014       0.037
 220       0.159    -0.048    -0.223       0.929
 221       0.004    -0.001    -0.004       1.285
 222       0.011    -0.007     0.011      -1.597
 223       0.003    -0.001    -0.004       1.133
 224       0.005     0.004    -0.012       0.084
 225       0.002    -0.002    -0.018       0.245
 226      -0.304    -0.258    -0.473      -0.096
 227       0.005     0.000    -0.019       0.222
 228      -1.727    -1.699    -2.467      -0.011
 229       0.003    -0.001    -0.003       1.057
 230       0.008    -0.007     0.010      -1.561
 231       0.002     0.001    -0.002       0.490
 232       0.003    -0.000    -0.007       0.391
 233       0.005    -0.003    -0.006       1.263
 234      -0.023     0.019     0.023       1.819
 235      -0.010     0.001    -0.019      -0.570
 236      -0.069    -0.068    -0.157      -0.011
 237       0.001     0.000    -0.002       0.368
 238      -0.016    -0.011    -0.025      -0.202
 239       0.001     0.001    -0.002       0.280
 240      -0.003     0.000     0.005       0.780
 241      -0.001    -0.001     0.002       0.363
 242       0.005     0.001    -0.008       0.543
 243      -0.005    -0.004     0.008       0.090
 244      -0.053    -0.050    -0.199      -0.015
 245       0.002    -0.001    -0.004       0.715
 246       0.003    -0.002    -0.016       0.278
 247       0.002     0.001    -0.003       0.411
 248       0.007    -0.002     0.009      -1.011
 249      -0.002    -0.000     0.005       0.441
 250       0.004     0.002    -0.023       0.075
 251      -0.020    -0.011    -0.035      -0.273
 252      -2.075    -2.060    -2.997      -0.005
 253       0.003    -0.002    -0.004       1.304
 254      -0.104    -0.097    -0.175      -0.042
 255       0.003     0.000    -0.005       0.679
 256       0.005     0.005    -0.009       0.008
 257       0.005    -0.002    -0.007       0.956
 258       0.044    -0.004     0.049      -0.971
 259       0.012     0.007    -0.025       0.215
 260       0.004    -0.001    -0.008       0.721
 261       0.026    -0.007     0.040      -0.827
 262       0.003     0.000    -0.005       0.679
 263       0.005     0.005    -0.009       0.008
 264       0.005    -0.002    -0.007       0.956
 265       0.044    -0.004     0.049      -0.971
 266       0.012     0.007    -0.025       0.215
 267       0.004    -0.001    -0.008       0.721
 268       0.026    -0.007     0.040      -0.827
 269       0.002     0.001    -0.003       0.411
 270       0.007    -0.002     0.009      -1.011
 271      -0.002    -0.000     0.005       0.441
 272       0.004     0.002    -0.023       0.075
 273      -0.020    -0.011    -0.035      -0.273
 274      -2.075    -2.060    -2.997      -0.005
 275       0.003    -0.002    -0.004       1.304
 276      -0.104    -0.097    -0.175      -0.042
 277       0.001     0.001    -0.002       0.280
 278      -0.003     0.000     0.005       0.780
 279      -0.001    -0.001     0.002       0.363
 280       0.005     0.001    -0.008       0.543
 281      -0.005    -0.004     0.008       0.090
 282      -0.053    -0.050    -0.199      -0.015
 283       0.002    -0.001    -0.004       0.715
 284       0.003    -0.002    -0.016       0.278
 285       0.001     0.001    -0.002       0.550
 286      -0.002     0.001     0.005       0.558
 287       0.001     0.000    -0.001       0.573
 288      -0.003    -0.000     0.005       0.514
 289      -0.004    -0.001     0.010       0.330
 290       0.034     0.031    -0.089       0.035
 291      -0.001     0.001     0.005       0.314
 292       0.006    -0.005     0.010      -1.086
 293       0.001     0.001    -0.003       0.132
 294      -0.011    -0.009    -0.019      -0.108
 295       0.002    -0.001    -0.002       1.209
 296       0.007    -0.004     0.010      -1.050
 297      -0.007    -0.001     0.010       0.578
 298      -0.378    -0.375    -0.652      -0.004
 299      -0.002     0.001     0.006       0.495
 300       0.019    -0.003     0.022      -1.000
 301       0.003     0.000    -0.004       0.636
 302       0.003     0.003    -0.009       0.081
 303      -0.004    -0.001     0.005       0.558
 304      -0.024    -0.020    -0.054      -0.070
 305      -0.012     0.011     0.017       1.391
 306       0.449    -0.107     0.483      -1.150
 307      -0.007     0.002     0.007       1.319
 308      -0.196    -0.191    -0.325      -0.015
 309      -0.004     0.001     0.005       1.072
 310       0.006     0.005    -0.009       0.035
 311      -0.005    -0.001     0.006       0.601
 312       0.014    -0.013     0.021      -1.250
 313       0.018     0.014    -0.019       0.225
 314      -0.008     0.005     0.009       1.398
 315       0.087     0.056     0.108      -0.289
 316       0.003     0.000    -0.004       0.636
 317       0.003     0.003    -0.009       0.081
 318      -0.004    -0.001     0.005       0.558
 319      -0.024    -0.020    -0.054      -0.070
 320      -0.012     0.011     0.017       1.391
 321       0.449    -0.107     0.483      -1.150
 322      -0.007     0.002     0.007       1.319
 323      -0.196    -0.191    -0.325      -0.015
 324       0.001     0.001    -0.003       0.132
 325      -0.011    -0.009    -0.019      -0.108
 326       0.002    -0.001    -0.002       1.209
 327       0.007    -0.004     0.010      -1.050
 328      -0.007    -0.001     0.010       0.578
 329      -0.378    -0.375    -0.652      -0.004
 330      -0.002     0.001     0.006       0.495
 331       0.019    -0.003     0.022      -1.000
 332       0.001     0.001    -0.002       0.347
 333       0.004     0.000    -0.004       0.918
 334      -0.002    -0.001     0.005       0.285
 335      -0.011     0.007     0.012       1.561
 336      -0.003    -0.001     0.009       0.218
 337       0.023    -0.007     0.026      -1.171
 338       0.001    -0.001     0.001      -1.353
 339       0.002    -0.002     0.007      -0.630
 340       0.002     0.001    -0.003       0.574
 341      -0.002     0.000    -0.011      -0.166
 342       0.007     0.000    -0.007       0.905
 343       0.059     0.020     0.067      -0.576
 344      -0.038    -0.030    -0.069      -0.114
 345       0.144     0.049     0.149      -0.636
 346       0.002    -0.001    -0.004       0.821
 347      -0.030    -0.028    -0.059      -0.046
 348      -0.004     0.000     0.004       0.994
 349       0.006     0.006    -0.009       0.015
 350       0.003    -0.001    -0.020       0.179
 351      -0.288    -0.223    -0.444      -0.146
 352       0.010     0.006    -0.023       0.177
 353       1.156     0.932     1.215      -0.185
 354      -0.003     0.003    -0.006      -1.071
 355       0.004     0.003    -0.019       0.077
 356      -0.004     0.000     0.004       0.994
 357       0.006     0.006    -0.009       0.015
 358       0.003    -0.001    -0.020       0.179
 359      -0.288    -0.223    -0.444      -0.146
 360       0.010     0.006    -0.023       0.177
 361       1.156     0.932     1.215      -0.185
 362      -0.003     0.003    -0.006      -1.071
 363       0.004     0.003    -0.019       0.077
 364       0.002     0.001    -0.003       0.574
 365      -0.002     0.000    -0.011      -0.166
 366       0.007     0.000    -0.007       0.905
 367       0.059     0.020     0.067      -0.576
 368      -0.038    -0.030    -0.069      -0.114
 369       0.144     0.049     0.149      -0.636
 370       0.002    -0.001    -0.004       0.821
 371      -0.030    -0.028    -0.059      -0.046
 372       0.001     0.001    -0.002       0.347
 373       0.004     0.000    -0.004       0.918
 374      -0.002    -0.001     0.005       0.285
 375      -0.011     0.007     0.012       1.561
 376      -0.003    -0.001     0.009       0.218
 377       0.023    -0.007     0.026      -1.171
 378       0.001    -0.001     0.001      -1.353
 379       0.002    -0.002     0.007      -0.630
 380       0.003    -0.000    -0.003       1.005
 381       0.002     0.000    -0.002       0.819
 382       0.005     0.001    -0.007       0.621
 383      -0.003     0.001     0.005       0.868
 384      -0.010     0.004     0.012       1.116
 385      -0.006     0.003     0.012       0.752
 386      -0.001     0.001     0.005       0.458
 387      -0.001     0.001     0.004       0.374
 388       0.003     0.001    -0.004       0.410
 389       0.002     0.001    -0.003       0.266
 390       0.002    -0.001    -0.020       0.168
 391       0.005     0.003    -0.007       0.349
 392       0.018     0.009    -0.020       0.431
 393       0.015    -0.005     0.024      -0.839
 394       0.005     0.004    -0.006       0.190
 395       0.004    -0.003     0.005      -1.461
 396       0.004     0.003    -0.006       0.152
 397       0.004     0.002    -0.005       0.324
 398       0.006     0.003    -0.034       0.104
 399      -0.012     0.009     0.012       1.739
 400       0.087    -0.003     0.101      -0.887
 401      -0.220    -0.211    -0.360      -0.024
 402       0.008    -0.008     0.010      -1.629
 403       0.002     0.000    -0.013       0.141
 404       0.005     0.003    -0.007       0.220
 405       0.005     0.002    -0.006       0.428
 406       0.017     0.016    -0.028       0.020
 407       0.012     0.011    -0.017       0.061
 408       0.103    -0.025     0.124      -1.036
 409       0.086     0.051     0.110      -0.319
 410       0.011    -0.009     0.011      -1.749
 411       0.009    -0.006     0.011      -1.333
 412       0.004     0.003    -0.006       0.152
 413       0.004     0.002    -0.005       0.324
 414       0.006     0.003    -0.034       0.104
 415      -0.012     0.009     0.012       1.739
 416       0.087    -0.003     0.101      -0.887
 417      -0.220    -0.211    -0.360      -0.024
 418       0.008    -0.008     0.010      -1.629
 419       0.002     0.000    -0.013       0.141
 420       0.003     0.001    -0.004       0.410
 421       0.002     0.001    -0.003       0.266
 422       0.002    -0.001    -0.020       0.168
 423       0.005     0.003    -0.007       0.349
 424       0.018     0.009    -0.020       0.431
 425       0.015    -0.005     0.024      -0.839
 426       0.005     0.004    -0.006       0.190
 427       0.004    -0.003     0.005      -1.461
 428       0.003    -0.000    -0.004       0.800
 429      -0.002     0.000     0.002       1.151
 430      -0.010     0.006     0.014       1.113
 431      -0.008     0.003     0.010       1.063
 432      -0.007     0.004     0.009       1.326
 433      -0.004     0.004     0.009       0.896
 434       0.003     0.000    -0.003       0.850
 435      -0.002     0.001     0.003       1.113
 436       0.004     0.003    -0.008       0.122
 437       0.004     0.004    -0.005       0.191
 438       0.056     0.018     0.066      -0.581
 439       0.016     0.012    -0.020       0.234
 440       0.017     0.014    -0.017       0.180
 441       0.019    -0.003     0.022      -1.024
 442       0.003     0.003    -0.005       0.114
 443       0.003     0.002    -0.005       0.163
 444       0.006     0.005    -0.011       0.110
 445       0.006     0.003    -0.008       0.383
 446      -0.065    -0.010    -0.160      -0.348
 447      -0.032     0.025     0.032       1.753
 448      -0.029     0.025     0.030       1.776
 449       0.021    -0.013     0.023      -1.472
 450       0.005     0.004    -0.007       0.205
 451       0.004     0.002    -0.007       0.355
 452       0.006     0.005    -0.011       0.110
 453       0.006     0.003    -0.008       0.383
 454      -0.065    -0.010    -0.160      -0.348
 455      -0.032     0.025     0.032       1.753
 456      -0.029     0.025     0.030       1.776
 457       0.021    -0.013     0.023      -1.472
 458       0.005     0.004    -0.007       0.205
 459       0.004     0.002    -0.007       0.355
 460       0.004     0.003    -0.008       0.122
 461       0.004     0.004    -0.005       0.191
 462       0.056     0.018     0.066      -0.581
 463       0.016     0.012    -0.020       0.234
 464       0.017     0.014    -0.017       0.180
 465       0.019    -0.003     0.022      -1.024
 466       0.003     0.003    -0.005       0.114
 467       0.003     0.002    -0.005       0.163
 468       0.003    -0.000    -0.004       0.800
 469      -0.002     0.000     0.002       1.151
 470      -0.010     0.006     0.014       1.113
 471      -0.008     0.003     0.010       1.063
 472      -0.007     0.004     0.009       1.326
 473      -0.004     0.004     0.009       0.896
 474       0.003     0.000    -0.003       0.850
 475      -0.002     0.001     0.003       1.113
 476       0.001    -0.001    -0.001       1.277
 477      -0.001    -0.000     0.005       0.285
 478      -0.004    -0.001     0.007       0.474
 479       0.010     0.005    -0.010       0.466
 480      -0.003    -0.000     0.008       0.424
 481       0.010    -0.007     0.014      -1.241
 482      -0.001     0.000     0.002       0.685
 483      -0.001    -0.000     0.005       0.249
 484       0.001     0.001    -0.003       0.137
 485       0.004     0.002    -0.005       0.499
 486      -0.005     0.003     0.009       0.790
 487       0.015     0.010    -0.021       0.233
 488      -0.005     0.004    -0.014      -0.570
 489       0.018    -0.016     0.021      -1.566
 490       0.002     0.001    -0.003       0.193
 491      -0.004     0.003     0.006       1.264
 492       0.004     0.001    -0.005       0.640
 493       0.005     0.005    -0.009       0.043
 494      -0.006    -0.000    -0.032      -0.186
 495       0.087    -0.004     0.095      -0.955
 496       0.014     0.010    -0.015       0.287
 497       0.147     0.057     0.154      -0.590
 498       0.004     0.001    -0.004       0.765
 499       0.005     0.005    -0.009       0.013
 500       0.005     0.001    -0.006       0.796
 501       0.008     0.007    -0.010       0.089
 502       0.017    -0.015     0.020      -1.590
 503       0.090    -0.031     0.109      -1.110
 504       0.015     0.014    -0.019       0.061
 505       0.137     0.051     0.170      -0.504
 506      -0.005     0.001     0.005       1.066
 507       0.008     0.008    -0.009       0.002
 508       0.004     0.001    -0.005       0.640
 509       0.005     0.005    -0.009       0.043
 510      -0.006    -0.000    -0.032      -0.186
 511       0.087    -0.004     0.095      -0.955
 512       0.014     0.010    -0.015       0.287
 513       0.147     0.057     0.154      -0.590
 514       0.004     0.001    -0.004       0.765
 515       0.005     0.005    -0.009       0.013
 516       0.001     0.001    -0.003       0.137
 517       0.004     0.002    -0.005       0.499
 518      -0.005     0.003     0.009       0.790
 519       0.015     0.010    -0.021       0.233
 520      -0.005     0.004    -0.014      -0.570
 521       0.018    -0.016     0.021      -1.566
 522       0.002     0.001    -0.003       0.193
 523      -0.004     0.003     0.006       1.264
 524       0.002     0.001    -0.002       0.423
 525      -0.003     0.001     0.004       1.074
 526       0.002    -0.000    -0.004       0.578
 527       0.006     0.002    -0.006       0.698
 528      -0.007    -0.001     0.009       0.616
 529       0.021    -0.007     0.029      -0.953
 530      -0.002     0.001     0.003       0.860
 531       0.005    -0.004     0.009      -0.973
 532       0.002     0.001    -0.004       0.321
 533       0.004     0.003    -0.005       0.204
 534       0.004     0.001    -0.008       0.343
 535      -0.011     0.011     0.012       1.766
 536      -0.012     0.009     0.017       1.190
 537       0.133     0.039     0.143      -0.655
 538       0.004     0.001    -0.007       0.443
 539       0.022    -0.002     0.023      -1.028
 540       0.004     0.001    -0.005       0.628
 541       0.005     0.004    -0.008       0.086
 542       0.006     0.001    -0.011       0.413
 543       0.019    -0.018     0.019      -1.888
 544      -0.023     0.020     0.025       1.717
 545       1.068     0.837     1.134      -0.204
 546       0.005     0.001    -0.013       0.352
 547       0.020    -0.013     0.023      -1.431
 548       0.004     0.001    -0.005       0.628
 549       0.005     0.004    -0.008       0.086
 550       0.006     0.001    -0.011       0.413
 551       0.019    -0.018     0.019      -1.888
 552      -0.023     0.020     0.025       1.717
 553       1.068     0.837     1.134      -0.204
 554       0.005     0.001    -0.013       0.352
 555       0.020    -0.013     0.023      -1.431
 556       0.002     0.001    -0.004       0.321
 557       0.004     0.003    -0.005       0.204
 558       0.004     0.001    -0.008       0.343
 559      -0.011     0.011     0.012       1.766
 560      -0.012     0.009     0.017       1.190
 561       0.133     0.039     0.143      -0.655
 562       0.004     0.001    -0.007       0.443
 563       0.022    -0.002     0.023      -1.028
 564       0.002     0.001    -0.002       0.423
 565      -0.003     0.001     0.004       1.074
 566       0.002    -0.000    -0.004       0.578
 567       0.006     0.002    -0.006       0.698
 568      -0.007    -0.001     0.009       0.616
 569       0.021    -0.007     0.029      -0.953
 570      -0.002     0.001     0.003       0.860
 571       0.005    -0.004     0.009      -0.973
 572       0.657     0.571     0.772      -0.112
 573      -0.241    -0.034     0.400       0.517
 574     -14.791   -14.747   -25.886      -0.002
 575     -14.791   -14.747   -25.886      -0.002
 576       0.636     0.542     0.751      -0.126
 ---------------------------------------------------------------------



--------------------------------------------------------------------------------------------------------


     LOOP+:  cpu time 1422.2691: real time 1426.5794
    4ORBIT:  cpu time    0.0000: real time    0.0000

 total amount of memory used by VASP MPI-rank0   238703. kBytes
=======================================================================

   base      :      30000. kBytes
   nonlr-proj:       9226. kBytes
   fftplans  :      15014. kBytes
   grid      :      46644. kBytes
   one-center:        294. kBytes
   wavefun   :     137525. kBytes
 
  
  
 General timing and accounting informations for this job:
 ========================================================
  
                  Total CPU time used (sec):     1454.106
                            User time (sec):     1453.127
                          System time (sec):        0.980
                         Elapsed time (sec):     1459.077
  
                   Maximum memory used (kb):      436872.
                   Average memory used (kb):          N/A
  
                          Minor page faults:       236209
                          Major page faults:            0
                 Voluntary context switches:        15399
