 vasp.6.2.0 18Jan21 (build Apr 30 2021 19:00:08) gamma-only                     
  
 executed on             LinuxIFC date 2022.12.30  16:22:58
 running on   24 total cores
 distrk:  each k-point on   24 cores,    1 groups
 distr:  one band on NCORE=   6 cores,    4 groups


--------------------------------------------------------------------------------------------------------


 INCAR:
   SYSTEM = Diamond
   PREC = Normal
   ISTART = 0
   ICHARG = 11
   ISPIN = 2
   MAGMOM = 572*0.0 1*2.0 2*2.0 1*3
   NPAR = 4
   NELECT = 2303
   LHYPERFINE = T
   LEFG = T
   ENCUT = 700
   NELM = 1000
   NELMIN = 4
   EDIFF = 1E-06
   LREAL = Auto
   ALGO = Normal
   EDIFFG = -1E-02
   NSW = 0
   IBRION = 2
   ISIF = 2
   ISYM = 2
   POTIM = 0.5
   ISMEAR = 0
   SIGMA = 0.05
   NEDOS = 1000
   LWAVE = F
   LCHARG = F
   LVHAR = F
   LELF = F

 POTCAR:    PAW_PBE C 08Apr2002                   
 POTCAR:    PAW_PBE H 15Jun2001                   
 POTCAR:    PAW_PBE C 08Apr2002                   
 POTCAR:    PAW_PBE N 08Apr2002                   
 POTCAR:    PAW_PBE C 08Apr2002                   
   VRHFIN =C: s2p2                                                                                  
   LEXCH  = PE                                                                                      
   EATOM  =   147.1560 eV,   10.8157 Ry                                                             
                                                                                                    
   TITEL  = PAW_PBE C 08Apr2002                                                                     
   LULTRA =        F    use ultrasoft PP ?                                                          
   IUNSCR =        1    unscreen: 0-lin 1-nonlin 2-no                                               
   RPACOR =    1.200    partial core radius                                                         
   POMASS =   12.011; ZVAL   =    4.000    mass and valenz                                          
   RCORE  =    1.500    outmost cutoff radius                                                       
   RWIGS  =    1.630; RWIGS  =    0.863    wigner-seitz radius (au A)                               
   ENMAX  =  400.000; ENMIN  =  300.000 eV                                                          
   ICORE  =        2    local potential                                                             
   LCOR   =        T    correct aug charges                                                         
   LPAW   =        T    paw PP                                                                      
   EAUG   =  644.873                                                                                
   DEXC   =    0.000                                                                                
   RMAX   =    1.529    core radius for proj-oper                                                   
   RAUG   =    1.300    factor for augmentation sphere                                              
   RDEP   =    1.501    radius for radial grids                                                     
   RDEPT  =    1.300    core radius for aug-charge                                                  
                                                                                                    
   Atomic configuration                                                                             
    4 entries                                                                                       
     n  l   j            E        occ.                                                              
     1  0  0.50      -273.3789   2.0000                                                             
     2  0  0.50       -13.7508   2.0000                                                             
     2  1  0.50        -5.2854   2.0000                                                             
     3  2  1.50        -5.4423   0.0000                                                             
   Description                                                                                      
     l       E           TYP  RCUT    TYP  RCUT                                                     
     0    -13.7508458     23  1.200                                                                 
     0     -8.2022199     23  1.200                                                                 
     1     -5.2854383     23  1.500                                                                 
     1     34.0145650     23  1.500                                                                 
     2     -5.4423304      7  1.500                                                                 
  local pseudopotential read in
  partial core-charges read in
  partial kinetic energy density read in
  atomic valenz-charges read in
  non local Contribution for L=           0  read in
    real space projection operators read in
  non local Contribution for L=           0  read in
    real space projection operators read in
  non local Contribution for L=           1  read in
    real space projection operators read in
  non local Contribution for L=           1  read in
    real space projection operators read in
    PAW grid and wavefunctions read in
 
   number of l-projection  operators is LMAX  =           4
   number of lm-projection operators is LMMAX =           8
 
 POTCAR:    PAW_PBE H 15Jun2001                   
   VRHFIN =H: ultrasoft test                                                                        
   LEXCH  = PE                                                                                      
   EATOM  =    12.4884 eV,    0.9179 Ry                                                             
                                                                                                    
   TITEL  = PAW_PBE H 15Jun2001                                                                     
   LULTRA =        F    use ultrasoft PP ?                                                          
   IUNSCR =        0    unscreen: 0-lin 1-nonlin 2-no                                               
   RPACOR =    0.000    partial core radius                                                         
   POMASS =    1.000; ZVAL   =    1.000    mass and valenz                                          
   RCORE  =    1.100    outmost cutoff radius                                                       
   RWIGS  =    0.700; RWIGS  =    0.370    wigner-seitz radius (au A)                               
   ENMAX  =  250.000; ENMIN  =  200.000 eV                                                          
   RCLOC  =    0.701    cutoff for local pot                                                        
   LCOR   =        T    correct aug charges                                                         
   LPAW   =        T    paw PP                                                                      
   EAUG   =  400.000                                                                                
   RMAX   =    1.123    core radius for proj-oper                                                   
   RAUG   =    1.200    factor for augmentation sphere                                              
   RDEP   =    1.112    radius for radial grids                                                     
   RDEPT  =    0.926    core radius for aug-charge                                                  
                                                                                                    
   Atomic configuration                                                                             
    2 entries                                                                                       
     n  l   j            E        occ.                                                              
     1  0  0.50        -6.4927   1.0000                                                             
     2  1  0.50        -3.4015   0.0000                                                             
   Description                                                                                      
     l       E           TYP  RCUT    TYP  RCUT                                                     
     0     -6.4927494     23  1.100                                                                 
     0      6.8029130     23  1.100                                                                 
     1     -4.0817478     23  1.100                                                                 
  local pseudopotential read in
  atomic valenz-charges read in
  non local Contribution for L=           0  read in
    real space projection operators read in
  non local Contribution for L=           0  read in
    real space projection operators read in
  non local Contribution for L=           1  read in
    real space projection operators read in
    PAW grid and wavefunctions read in
 
   number of l-projection  operators is LMAX  =           3
   number of lm-projection operators is LMMAX =           5
 
 POTCAR:    PAW_PBE C 08Apr2002                   
   VRHFIN =C: s2p2                                                                                  
   LEXCH  = PE                                                                                      
   EATOM  =   147.1560 eV,   10.8157 Ry                                                             
                                                                                                    
   TITEL  = PAW_PBE C 08Apr2002                                                                     
   LULTRA =        F    use ultrasoft PP ?                                                          
   IUNSCR =        1    unscreen: 0-lin 1-nonlin 2-no                                               
   RPACOR =    1.200    partial core radius                                                         
   POMASS =   12.011; ZVAL   =    4.000    mass and valenz                                          
   RCORE  =    1.500    outmost cutoff radius                                                       
   RWIGS  =    1.630; RWIGS  =    0.863    wigner-seitz radius (au A)                               
   ENMAX  =  400.000; ENMIN  =  300.000 eV                                                          
   ICORE  =        2    local potential                                                             
   LCOR   =        T    correct aug charges                                                         
   LPAW   =        T    paw PP                                                                      
   EAUG   =  644.873                                                                                
   DEXC   =    0.000                                                                                
   RMAX   =    1.529    core radius for proj-oper                                                   
   RAUG   =    1.300    factor for augmentation sphere                                              
   RDEP   =    1.501    radius for radial grids                                                     
   RDEPT  =    1.300    core radius for aug-charge                                                  
                                                                                                    
   Atomic configuration                                                                             
    4 entries                                                                                       
     n  l   j            E        occ.                                                              
     1  0  0.50      -273.3789   2.0000                                                             
     2  0  0.50       -13.7508   2.0000                                                             
     2  1  0.50        -5.2854   2.0000                                                             
     3  2  1.50        -5.4423   0.0000                                                             
   Description                                                                                      
     l       E           TYP  RCUT    TYP  RCUT                                                     
     0    -13.7508458     23  1.200                                                                 
     0     -8.2022199     23  1.200                                                                 
     1     -5.2854383     23  1.500                                                                 
     1     34.0145650     23  1.500                                                                 
     2     -5.4423304      7  1.500                                                                 
  local pseudopotential read in
  partial core-charges read in
  partial kinetic energy density read in
  atomic valenz-charges read in
  non local Contribution for L=           0  read in
    real space projection operators read in
  non local Contribution for L=           0  read in
    real space projection operators read in
  non local Contribution for L=           1  read in
    real space projection operators read in
  non local Contribution for L=           1  read in
    real space projection operators read in
    PAW grid and wavefunctions read in
 
   number of l-projection  operators is LMAX  =           4
   number of lm-projection operators is LMMAX =           8
 
 POTCAR:    PAW_PBE N 08Apr2002                   
   VRHFIN =N: s2p3                                                                                  
   LEXCH  = PE                                                                                      
   EATOM  =   264.5486 eV,   19.4438 Ry                                                             
                                                                                                    
   TITEL  = PAW_PBE N 08Apr2002                                                                     
   LULTRA =        F    use ultrasoft PP ?                                                          
   IUNSCR =        1    unscreen: 0-lin 1-nonlin 2-no                                               
   RPACOR =    1.200    partial core radius                                                         
   POMASS =   14.001; ZVAL   =    5.000    mass and valenz                                          
   RCORE  =    1.500    outmost cutoff radius                                                       
   RWIGS  =    1.400; RWIGS  =    0.741    wigner-seitz radius (au A)                               
   ENMAX  =  400.000; ENMIN  =  300.000 eV                                                          
   ICORE  =        2    local potential                                                             
   LCOR   =        T    correct aug charges                                                         
   LPAW   =        T    paw PP                                                                      
   EAUG   =  627.112                                                                                
   DEXC   =    0.000                                                                                
   RMAX   =    1.529    core radius for proj-oper                                                   
   RAUG   =    1.300    factor for augmentation sphere                                              
   RDEP   =    1.514    radius for radial grids                                                     
   RDEPT  =    1.338    core radius for aug-charge                                                  
                                                                                                    
   Atomic configuration                                                                             
    4 entries                                                                                       
     n  l   j            E        occ.                                                              
     1  0  0.50      -384.7179   2.0000                                                             
     2  0  0.50       -18.5828   2.0000                                                             
     2  1  0.50        -7.0898   3.0000                                                             
     3  2  1.50        -6.8029   0.0000                                                             
   Description                                                                                      
     l       E           TYP  RCUT    TYP  RCUT                                                     
     0    -18.5828119     23  1.200                                                                 
     0    -13.5018863     23  1.200                                                                 
     1     -7.0897853     23  1.500                                                                 
     1      9.5240782     23  1.500                                                                 
     2     -6.8029130      7  1.500                                                                 
  local pseudopotential read in
  partial core-charges read in
  partial kinetic energy density read in
  atomic valenz-charges read in
  non local Contribution for L=           0  read in
    real space projection operators read in
  non local Contribution for L=           0  read in
    real space projection operators read in
  non local Contribution for L=           1  read in
    real space projection operators read in
  non local Contribution for L=           1  read in
    real space projection operators read in
    PAW grid and wavefunctions read in
 
   number of l-projection  operators is LMAX  =           4
   number of lm-projection operators is LMMAX =           8
 
 Optimization of the real space projectors (new method)

 maximal supplied QI-value         = 25.13
 optimisation between [QCUT,QGAM] = [ 13.32, 26.89] = [ 49.69,202.52] Ry 
 Optimized for a Real-space Cutoff    1.01 Angstroem

   l    n(q)    QCUT    max X(q) W(low)/X(q) W(high)/X(q)  e(spline) 
   0      8    13.321   115.676    0.29E-03    0.42E-03    0.11E-06
   0      8    13.321    87.132    0.29E-03    0.42E-03    0.11E-06
   1      8    13.321     4.429    0.39E-03    0.33E-03    0.98E-07
   1      8    13.321     2.733    0.30E-03    0.26E-03    0.97E-07
 Optimization of the real space projectors (new method)

 maximal supplied QI-value         = 34.20
 optimisation between [QCUT,QGAM] = [ 13.34, 27.02] = [ 49.83,204.46] Ry 
 Optimized for a Real-space Cutoff    0.93 Angstroem

   l    n(q)    QCUT    max X(q) W(low)/X(q) W(high)/X(q)  e(spline) 
   0      7    13.340    19.460    0.47E-03    0.72E-04    0.17E-06
   0      7    13.340    12.209    0.45E-03    0.63E-04    0.16E-06
   1      7    13.340     4.655    0.21E-03    0.61E-03    0.12E-06
 Optimization of the real space projectors (new method)

 maximal supplied QI-value         = 25.13
 optimisation between [QCUT,QGAM] = [ 13.32, 26.89] = [ 49.69,202.52] Ry 
 Optimized for a Real-space Cutoff    1.01 Angstroem

   l    n(q)    QCUT    max X(q) W(low)/X(q) W(high)/X(q)  e(spline) 
   0      8    13.321   115.676    0.29E-03    0.42E-03    0.11E-06
   0      8    13.321    87.132    0.29E-03    0.42E-03    0.11E-06
   1      8    13.321     4.429    0.39E-03    0.33E-03    0.98E-07
   1      8    13.321     2.733    0.30E-03    0.26E-03    0.97E-07
 Optimization of the real space projectors (new method)

 maximal supplied QI-value         = 25.13
 optimisation between [QCUT,QGAM] = [ 13.32, 26.89] = [ 49.69,202.52] Ry 
 Optimized for a Real-space Cutoff    1.01 Angstroem

   l    n(q)    QCUT    max X(q) W(low)/X(q) W(high)/X(q)  e(spline) 
   0      8    13.321    79.467    0.28E-03    0.38E-03    0.11E-06
   0      8    13.321    66.151    0.27E-03    0.38E-03    0.11E-06
   1      8    13.321    23.070    0.40E-03    0.78E-03    0.29E-06
   1      8    13.321    16.668    0.40E-03    0.79E-03    0.30E-06
  PAW_PBE C 08Apr2002                   :
 energy of atom  1       EATOM= -147.1560
 kinetic energy error for atom=    0.0032 (will be added to EATOM!!)
  PAW_PBE H 15Jun2001                   :
 energy of atom  2       EATOM=  -12.4884
 kinetic energy error for atom=    0.0002 (will be added to EATOM!!)
  PAW_PBE C 08Apr2002                   :
 energy of atom  3       EATOM= -147.1560
 kinetic energy error for atom=    0.0032 (will be added to EATOM!!)
  PAW_PBE N 08Apr2002                   :
 energy of atom  4       EATOM= -264.5486
 kinetic energy error for atom=    0.0061 (will be added to EATOM!!)
 
 
 POSCAR: Autosave
  positions in direct lattice
  velocities in cartesian coordinates
 exchange correlation table for  LEXCH =        8
   RHO(1)=    0.500       N(1)  =     2000
   RHO(2)=  100.500       N(2)  =     4000
 


--------------------------------------------------------------------------------------------------------


 ion  position               nearest neighbor table
   1  0.000  1.000  1.000- 288 1.55 384 1.55 437 1.55 475 1.55
   2  0.000  1.000  0.500- 474 1.55 383 1.55 289 1.55 436 1.55
   3  0.000  0.250  1.000- 290 1.55 431 1.55 386 1.55 469 1.55
   4  0.000  0.250  0.500- 430 1.55 468 1.55 291 1.55 385 1.55
   5  0.000  0.500  0.000- 292 1.55 433 1.55 388 1.55 471 1.55
   6  0.000  0.500  0.500- 432 1.54 470 1.54 293 1.55 387 1.55
   7  1.000  0.750  1.000- 390 1.55 294 1.55 435 1.55 473 1.55
   8  0.000  0.750  0.500- 295 1.55 389 1.55 472 1.55 434 1.55
   9  0.167  1.000  1.000- 296 1.55 392 1.55 437 1.55 445 1.55
  10  0.167  1.000  0.500- 391 1.54 436 1.55 444 1.55 297 1.55
  11  0.167  0.250  0.000- 298 1.55 439 1.55 431 1.55 394 1.55
  12  0.167  0.250  0.500- 430 1.55 299 1.55 393 1.55 438 1.55
  13  0.167  0.500  0.000- 441 1.55 300 1.55 396 1.55 433 1.55
  14  0.166  0.500  0.500- 440 1.54 432 1.54 301 1.55 395 1.55
  15  0.167  0.750  1.000- 398 1.55 302 1.55 435 1.55 443 1.55
  16  0.167  0.750  0.500- 303 1.55 434 1.55 442 1.55 397 1.55
  17  0.333  0.000  1.000- 400 1.55 304 1.55 452 1.55 445 1.55
  18  0.333  0.000  0.500- 399 1.55 451 1.55 305 1.55 444 1.55
  19  0.333  0.250  0.000- 306 1.55 402 1.55 447 1.55 439 1.55
  20  0.333  0.250  0.500- 401 1.54 438 1.54 307 1.55 446 1.55
  21  0.333  0.500  0.001- 448 1.55 404 1.55 308 1.55 441 1.55
  22  0.334  0.499  0.500- 575 1.49 309 1.55 403 1.55 440 1.55
  23  0.333  0.750  1.000- 310 1.55 450 1.55 443 1.55 406 1.55
  24  0.333  0.750  0.500- 449 1.54 405 1.54 311 1.55 442 1.55
  25  0.500  0.000  1.000- 408 1.55 312 1.55 459 1.55 452 1.55
  26  0.500  0.000  0.500- 407 1.55 313 1.55 458 1.55 451 1.55
  27  0.500  0.250  0.000- 410 1.54 314 1.54 447 1.55 454 1.55
  28  0.500  0.250  0.500- 315 1.55 446 1.55 409 1.55 453 1.55
  29  0.500  0.500  0.000- 411 1.55 448 1.55 455 1.55 316 1.55
  30  0.500  0.750  1.000- 317 1.54 413 1.55 450 1.55 457 1.55
  31  0.500  0.751  0.500- 412 1.54 318 1.55 449 1.55 456 1.55
  32  0.667  0.000  1.000- 319 1.55 415 1.55 459 1.55 467 1.55
  33  0.667  0.000  0.500- 414 1.55 458 1.55 320 1.55 466 1.55
  34  0.667  0.250  0.000- 321 1.55 454 1.55 417 1.55 461 1.55
  35  0.667  0.250  0.500- 416 1.54 460 1.54 322 1.55 453 1.55
  36  0.667  0.500  0.000- 455 1.55 419 1.55 323 1.55 463 1.55
  37  0.668  0.499  0.499- 572 1.52 462 1.54 324 1.55 418 1.55
  38  0.667  0.750  1.000- 325 1.55 465 1.55 421 1.55 457 1.55
  39  0.667  0.751  0.500- 456 1.54 420 1.54 326 1.55 464 1.55
  40  0.833  1.000  1.000- 327 1.55 475 1.55 423 1.55 467 1.55
  41  0.833  1.000  0.500- 422 1.55 466 1.55 474 1.55 328 1.55
  42  0.833  0.250  1.000- 329 1.55 469 1.55 461 1.55 425 1.55
  43  0.833  0.250  0.500- 468 1.55 330 1.55 460 1.55 424 1.55
  44  0.833  0.500  1.000- 331 1.55 471 1.55 427 1.55 463 1.55
  45  0.834  0.500  0.500- 462 1.54 470 1.54 332 1.55 426 1.55
  46  0.833  0.750  1.000- 429 1.55 473 1.55 333 1.55 465 1.55
  47  0.833  0.750  0.500- 334 1.55 464 1.55 472 1.55 428 1.55
  48  0.083  0.125  1.000- 335 1.55 392 1.55 384 1.55 431 1.55
  49  0.083  0.125  0.500- 383 1.55 391 1.55 430 1.55 336 1.55
  50  0.083  0.375  0.000- 337 1.55 394 1.55 433 1.55 386 1.55
  51  0.083  0.375  0.500- 385 1.55 393 1.55 338 1.55 432 1.55
  52  0.083  0.625  0.000- 396 1.55 339 1.55 435 1.55 388 1.55
  53  0.084  0.625  0.500- 340 1.55 434 1.55 387 1.55 395 1.55
  54  0.083  0.875  1.000- 341 1.55 437 1.55 390 1.55 398 1.55
  55  0.083  0.875  0.500- 389 1.55 436 1.55 342 1.55 397 1.55
  56  0.250  0.125  0.000- 343 1.55 439 1.55 400 1.55 392 1.55
  57  0.250  0.125  0.500- 438 1.54 391 1.54 399 1.55 344 1.55
  58  0.250  0.375  0.000- 345 1.54 402 1.55 441 1.55 394 1.55
  59  0.250  0.375  0.500- 393 1.55 346 1.55 401 1.55 440 1.55
  60  0.250  0.625  0.000- 404 1.54 347 1.54 443 1.55 396 1.55
  61  0.251  0.625  0.500- 348 1.54 442 1.55 395 1.55 403 1.56
  62  0.250  0.875  1.000- 349 1.55 445 1.55 406 1.55 398 1.55
  63  0.250  0.875  0.500- 405 1.54 444 1.55 350 1.55 397 1.55
  64  0.417  0.125  0.000- 447 1.55 351 1.55 408 1.55 400 1.55
  65  0.417  0.125  0.500- 446 1.55 352 1.55 407 1.55 399 1.55
  66  0.417  0.375  0.000- 353 1.55 448 1.55 410 1.55 402 1.55
  67  0.416  0.375  0.500- 575 1.49 354 1.55 401 1.55 409 1.56
  68  0.417  0.625  0.000- 355 1.55 404 1.55 411 1.55 450 1.55
  69  0.419  0.626  0.498- 576 1.48 449 1.55 356 1.56 403 1.56
  70  0.417  0.875  1.000- 452 1.55 357 1.55 413 1.55 406 1.55
  71  0.417  0.875  0.500- 451 1.54 412 1.55 358 1.55 405 1.55
  72  0.583  0.125  0.000- 454 1.55 359 1.55 408 1.55 415 1.55
  73  0.583  0.125  0.500- 453 1.55 360 1.55 407 1.55 414 1.55
  74  0.583  0.375  0.000- 361 1.55 410 1.55 455 1.55 417 1.55
  75  0.585  0.374  0.499- 572 1.52 416 1.54 409 1.55 362 1.55
  76  0.583  0.625  0.000- 363 1.55 411 1.55 419 1.55 457 1.55
  77  0.582  0.626  0.498- 576 1.48 456 1.54 364 1.56 418 1.56
  78  0.583  0.875  1.000- 459 1.55 365 1.55 413 1.55 421 1.55
  79  0.583  0.875  0.500- 458 1.54 412 1.55 366 1.55 420 1.55
  80  0.750  0.125  1.000- 367 1.55 461 1.55 423 1.55 415 1.55
  81  0.750  0.125  0.500- 460 1.54 422 1.55 368 1.55 414 1.55
  82  0.750  0.375  1.000- 369 1.54 425 1.55 417 1.55 463 1.55
  83  0.750  0.375  0.500- 424 1.54 370 1.55 416 1.55 462 1.55
  84  0.750  0.625  1.000- 419 1.55 371 1.55 465 1.55 427 1.55
  85  0.749  0.625  0.500- 372 1.54 464 1.55 426 1.55 418 1.55
  86  0.750  0.875  1.000- 373 1.55 467 1.55 429 1.55 421 1.55
  87  0.750  0.875  0.500- 420 1.54 466 1.54 374 1.55 428 1.55
  88  0.917  0.125  1.000- 375 1.55 384 1.55 469 1.55 423 1.55
  89  0.917  0.125  0.500- 383 1.55 422 1.55 468 1.55 376 1.55
  90  0.917  0.375  1.000- 386 1.55 377 1.55 471 1.55 425 1.55
  91  0.917  0.375  0.500- 385 1.54 424 1.55 378 1.55 470 1.55
  92  0.917  0.625  1.000- 388 1.55 473 1.55 379 1.55 427 1.55
  93  0.917  0.625  0.500- 380 1.55 472 1.55 426 1.55 387 1.55
  94  0.917  0.875  1.000- 381 1.55 475 1.55 390 1.55 429 1.55
  95  0.917  0.875  0.500- 428 1.55 474 1.55 382 1.55 389 1.55
  96  0.000  0.083  0.333- 524 1.55 564 1.55 383 1.55 476 1.55
  97  0.000  0.083  0.833- 384 1.55 525 1.55 477 1.55 565 1.55
  98  0.000  0.333  0.333- 526 1.55 385 1.55 566 1.55 478 1.55
  99  0.000  0.333  0.833- 386 1.55 527 1.55 479 1.55 567 1.55
 100  0.000  0.583  0.333- 387 1.55 480 1.55 528 1.55 568 1.55
 101  1.000  0.583  0.833- 529 1.55 388 1.55 481 1.55 569 1.55
 102  0.000  0.833  0.333- 482 1.55 530 1.55 389 1.55 570 1.55
 103  1.000  0.833  0.833- 390 1.55 483 1.55 531 1.55 571 1.55
 104  0.167  0.083  0.333- 524 1.55 532 1.55 484 1.55 391 1.55
 105  0.167  0.083  0.833- 392 1.55 485 1.55 525 1.55 533 1.55
 106  0.167  0.333  0.333- 534 1.55 393 1.55 526 1.55 486 1.55
 107  0.167  0.333  0.833- 394 1.55 535 1.55 487 1.55 527 1.55
 108  0.167  0.583  0.333- 395 1.55 536 1.55 488 1.55 528 1.55
 109  0.167  0.583  0.833- 537 1.54 529 1.55 396 1.55 489 1.55
 110  0.167  0.833  0.333- 538 1.55 397 1.55 490 1.55 530 1.55
 111  0.167  0.833  0.833- 398 1.55 491 1.55 531 1.55 539 1.55
 112  0.333  0.083  0.333- 492 1.55 540 1.55 399 1.55 532 1.55
 113  0.333  0.083  0.833- 493 1.55 400 1.55 541 1.55 533 1.55
 114  0.333  0.333  0.334- 542 1.55 534 1.55 401 1.55 494 1.55
 115  0.333  0.333  0.834- 495 1.55 402 1.55 543 1.55 535 1.55
 116  0.334  0.583  0.334- 403 1.54 544 1.54 536 1.55 496 1.55
 117  0.333  0.583  0.834- 545 1.54 404 1.54 537 1.55 497 1.55
 118  0.333  0.834  0.333- 498 1.54 546 1.55 538 1.55 405 1.55
 119  0.333  0.833  0.833- 406 1.55 499 1.55 547 1.55 539 1.55
 120  0.500  0.083  0.333- 500 1.55 407 1.55 548 1.55 540 1.55
 121  0.500  0.083  0.833- 501 1.55 408 1.55 549 1.55 541 1.55
 122  0.500  0.334  0.334- 409 1.54 502 1.54 542 1.55 550 1.55
 123  0.500  0.333  0.834- 503 1.54 410 1.54 543 1.55 551 1.55
 124  0.500  0.585  0.335- 576 1.48 504 1.54 544 1.56 552 1.56
 125  0.500  0.583  0.833- 505 1.55 411 1.55 545 1.55 553 1.55
 126  0.500  0.834  0.333- 506 1.54 412 1.55 546 1.55 554 1.55
 127  0.500  0.833  0.833- 413 1.55 507 1.55 547 1.55 555 1.55
 128  0.667  0.083  0.333- 508 1.55 548 1.55 414 1.55 556 1.55
 129  0.667  0.083  0.833- 509 1.55 415 1.55 549 1.55 557 1.55
 130  0.667  0.333  0.333- 558 1.54 550 1.55 416 1.55 510 1.55
 131  0.667  0.333  0.833- 551 1.55 511 1.55 417 1.55 559 1.55
 132  0.667  0.583  0.333- 418 1.54 552 1.54 560 1.55 512 1.55
 133  0.666  0.583  0.833- 553 1.54 419 1.55 513 1.55 561 1.55
 134  0.667  0.834  0.333- 514 1.54 554 1.55 420 1.55 562 1.55
 135  0.667  0.833  0.833- 421 1.55 563 1.55 515 1.55 555 1.55
 136  0.833  0.083  0.333- 564 1.55 516 1.55 556 1.55 422 1.55
 137  0.833  0.083  0.833- 423 1.55 565 1.55 517 1.55 557 1.55
 138  0.833  0.333  0.333- 566 1.55 424 1.55 558 1.55 518 1.55
 139  0.833  0.333  0.833- 425 1.55 567 1.55 559 1.55 519 1.55
 140  0.833  0.583  0.333- 560 1.55 426 1.55 520 1.55 568 1.55
 141  0.833  0.583  0.833- 521 1.55 569 1.55 427 1.55 561 1.55
 142  0.833  0.833  0.333- 562 1.55 522 1.55 428 1.55 570 1.55
 143  0.833  0.833  0.833- 429 1.55 571 1.55 523 1.55 563 1.55
 144  0.083  0.208  0.333- 484 1.55 430 1.55 476 1.55 526 1.55
 145  0.083  0.208  0.833- 431 1.55 485 1.55 527 1.55 477 1.55
 146  0.083  0.458  0.333- 478 1.55 486 1.55 432 1.55 528 1.55
 147  0.083  0.458  0.833- 487 1.55 433 1.55 529 1.55 479 1.55
 148  0.083  0.708  0.333- 434 1.55 488 1.55 530 1.55 480 1.55
 149  0.083  0.708  0.833- 531 1.55 435 1.55 489 1.55 481 1.55
 150  0.083  0.958  0.333- 490 1.55 524 1.55 436 1.55 482 1.55
 151  0.083  0.958  0.833- 437 1.55 525 1.55 491 1.55 483 1.55
 152  0.250  0.208  0.333- 484 1.55 492 1.55 438 1.55 534 1.55
 153  0.250  0.208  0.833- 439 1.55 535 1.55 493 1.55 485 1.55
 154  0.250  0.458  0.334- 536 1.55 486 1.55 440 1.55 494 1.55
 155  0.250  0.458  0.834- 495 1.55 537 1.55 441 1.55 487 1.55
 156  0.250  0.708  0.333- 442 1.55 496 1.55 488 1.55 538 1.55
 157  0.250  0.708  0.833- 539 1.55 489 1.55 497 1.55 443 1.55
 158  0.250  0.958  0.333- 532 1.55 498 1.55 444 1.55 490 1.55
 159  0.250  0.958  0.833- 445 1.55 533 1.55 491 1.55 499 1.55
 160  0.417  0.208  0.333- 446 1.55 542 1.55 492 1.55 500 1.55
 161  0.417  0.208  0.833- 543 1.54 447 1.55 493 1.55 501 1.55
 162  0.417  0.459  0.336- 575 1.51 544 1.55 502 1.55 494 1.57
 163  0.417  0.458  0.834- 495 1.55 448 1.55 545 1.55 503 1.55
 164  0.417  0.709  0.333- 546 1.54 496 1.55 449 1.55 504 1.55
 165  0.417  0.708  0.833- 497 1.55 505 1.55 547 1.55 450 1.55
 166  0.417  0.958  0.333- 540 1.55 451 1.55 498 1.55 506 1.55
 167  0.417  0.958  0.833- 452 1.55 541 1.55 499 1.55 507 1.55
 168  0.583  0.208  0.333- 550 1.55 453 1.55 500 1.55 508 1.55
 169  0.583  0.208  0.833- 551 1.55 509 1.55 454 1.55 501 1.55
 170  0.585  0.458  0.333- 572 1.52 510 1.54 502 1.55 552 1.55
 171  0.583  0.458  0.833- 511 1.55 455 1.55 503 1.55 553 1.55
 172  0.584  0.709  0.333- 554 1.54 512 1.55 456 1.55 504 1.55
 173  0.583  0.708  0.833- 513 1.55 505 1.55 555 1.55 457 1.55
 174  0.583  0.958  0.333- 548 1.55 458 1.55 506 1.55 514 1.55
 175  0.583  0.958  0.833- 459 1.55 549 1.55 515 1.55 507 1.55
 176  0.750  0.208  0.333- 516 1.55 508 1.55 558 1.55 460 1.55
 177  0.750  0.208  0.833- 461 1.55 509 1.55 559 1.55 517 1.55
 178  0.751  0.458  0.333- 518 1.54 560 1.55 462 1.55 510 1.55
 179  0.750  0.458  0.833- 561 1.55 511 1.55 463 1.55 519 1.55
 180  0.750  0.708  0.333- 512 1.55 464 1.55 562 1.55 520 1.55
 181  0.750  0.708  0.833- 521 1.55 563 1.55 465 1.55 513 1.55
 182  0.750  0.958  0.333- 556 1.55 514 1.55 466 1.55 522 1.55
 183  0.750  0.958  0.833- 467 1.55 557 1.55 523 1.55 515 1.55
 184  0.917  0.208  0.333- 476 1.55 516 1.55 468 1.55 566 1.55
 185  0.917  0.208  0.833- 469 1.55 517 1.55 477 1.55 567 1.55
 186  0.917  0.458  0.333- 478 1.55 518 1.55 568 1.55 470 1.55
 187  0.917  0.458  0.833- 471 1.55 569 1.55 479 1.55 519 1.55
 188  0.917  0.708  0.333- 520 1.55 472 1.55 570 1.55 480 1.55
 189  0.917  0.708  0.833- 571 1.55 473 1.55 481 1.55 521 1.55
 190  0.917  0.958  0.333- 522 1.55 564 1.55 474 1.55 482 1.55
 191  0.917  0.958  0.833- 475 1.55 523 1.55 565 1.55 483 1.55
 192  0.000  0.167  0.167- 335 1.55 375 1.55 476 1.55 290 1.55
 193  0.000  0.167  0.667- 477 1.55 376 1.55 336 1.55 291 1.55
 194  0.000  0.417  0.167- 337 1.55 478 1.55 377 1.55 292 1.55
 195  1.000  0.417  0.667- 378 1.55 479 1.55 338 1.55 293 1.55
 196  0.000  0.667  0.167- 339 1.55 480 1.55 294 1.55 379 1.55
 197  1.000  0.667  0.667- 295 1.55 481 1.55 340 1.55 380 1.55
 198  0.000  0.917  0.167- 341 1.55 288 1.55 381 1.55 482 1.55
 199  1.000  0.917  0.667- 483 1.55 289 1.55 382 1.55 342 1.55
 200  0.167  0.167  0.167- 484 1.55 343 1.55 298 1.55 335 1.55
 201  0.167  0.167  0.667- 485 1.55 299 1.55 336 1.55 344 1.55
 202  0.167  0.417  0.167- 486 1.55 345 1.55 300 1.55 337 1.55
 203  0.167  0.417  0.667- 346 1.55 487 1.55 338 1.55 301 1.55
 204  0.167  0.667  0.167- 347 1.55 488 1.55 302 1.55 339 1.55
 205  0.167  0.667  0.667- 303 1.55 489 1.55 340 1.55 348 1.55
 206  0.167  0.917  0.167- 296 1.55 490 1.55 349 1.55 341 1.55
 207  0.167  0.917  0.667- 491 1.55 297 1.55 350 1.55 342 1.55
 208  0.333  0.167  0.167- 492 1.55 306 1.55 351 1.55 343 1.55
 209  0.333  0.167  0.667- 307 1.54 493 1.55 344 1.55 352 1.55
 210  0.333  0.417  0.167- 494 1.54 353 1.55 345 1.55 308 1.55
 211  0.333  0.417  0.667- 354 1.54 309 1.55 346 1.55 495 1.55
 212  0.333  0.667  0.167- 496 1.55 355 1.55 347 1.55 310 1.55
 213  0.334  0.666  0.666- 348 1.54 311 1.55 497 1.55 356 1.56
 214  0.333  0.917  0.167- 304 1.55 498 1.55 357 1.55 349 1.55
 215  0.333  0.917  0.667- 499 1.55 305 1.55 358 1.55 350 1.55
 216  0.500  0.167  0.167- 314 1.55 500 1.55 351 1.55 359 1.55
 217  0.500  0.167  0.667- 315 1.55 501 1.55 352 1.55 360 1.55
 218  0.500  0.417  0.168- 316 1.55 353 1.55 502 1.55 361 1.55
 219  0.499  0.417  0.667- 574 1.49 354 1.55 503 1.55 362 1.56
 220  0.500  0.667  0.166- 504 1.54 317 1.54 355 1.55 363 1.55
 221  0.500  0.666  0.666- 356 1.54 364 1.54 505 1.55 318 1.55
 222  0.500  0.917  0.167- 312 1.55 506 1.55 357 1.55 365 1.55
 223  0.500  0.917  0.667- 313 1.55 507 1.55 358 1.55 366 1.55
 224  0.667  0.167  0.167- 508 1.55 321 1.55 367 1.55 359 1.55
 225  0.667  0.167  0.667- 322 1.55 509 1.55 360 1.55 368 1.55
 226  0.667  0.416  0.166- 510 1.54 369 1.54 361 1.55 323 1.55
 227  0.666  0.417  0.666- 362 1.54 324 1.54 511 1.55 370 1.55
 228  0.667  0.667  0.167- 512 1.54 363 1.55 325 1.55 371 1.55
 229  0.666  0.666  0.666- 372 1.54 326 1.55 513 1.55 364 1.56
 230  0.667  0.917  0.167- 319 1.55 514 1.55 365 1.55 373 1.55
 231  0.667  0.917  0.667- 515 1.55 320 1.55 366 1.55 374 1.55
 232  0.833  0.167  0.167- 375 1.55 516 1.55 329 1.55 367 1.55
 233  0.833  0.167  0.667- 517 1.55 330 1.55 368 1.55 376 1.55
 234  0.834  0.417  0.166- 377 1.55 518 1.55 331 1.55 369 1.55
 235  0.833  0.417  0.667- 370 1.55 519 1.55 332 1.55 378 1.55
 236  0.833  0.667  0.167- 520 1.55 371 1.55 333 1.55 379 1.55
 237  0.833  0.667  0.666- 521 1.55 334 1.55 380 1.55 372 1.55
 238  0.833  0.917  0.167- 327 1.55 522 1.55 373 1.55 381 1.55
 239  0.833  0.917  0.667- 523 1.55 374 1.55 328 1.55 382 1.55
 240  0.083  0.042  0.167- 296 1.55 524 1.55 335 1.55 288 1.55
 241  0.083  0.042  0.667- 525 1.55 297 1.55 336 1.55 289 1.55
 242  0.083  0.292  0.167- 298 1.55 526 1.55 337 1.55 290 1.55
 243  0.083  0.292  0.667- 527 1.55 299 1.55 291 1.55 338 1.55
 244  0.083  0.542  0.167- 528 1.55 300 1.55 339 1.55 292 1.55
 245  0.083  0.542  0.667- 301 1.54 529 1.55 340 1.55 293 1.55
 246  0.083  0.792  0.167- 302 1.55 341 1.55 530 1.55 294 1.55
 247  0.083  0.792  0.667- 531 1.55 342 1.55 303 1.55 295 1.55
 248  0.250  0.042  0.167- 343 1.55 532 1.55 304 1.55 296 1.55
 249  0.250  0.042  0.667- 344 1.55 533 1.55 305 1.55 297 1.55
 250  0.250  0.292  0.167- 534 1.55 306 1.55 298 1.55 345 1.55
 251  0.250  0.292  0.667- 346 1.55 535 1.55 299 1.55 307 1.55
 252  0.250  0.542  0.167- 536 1.55 308 1.55 347 1.55 300 1.55
 253  0.250  0.541  0.667- 309 1.54 348 1.55 537 1.55 301 1.55
 254  0.250  0.792  0.167- 538 1.55 349 1.55 310 1.55 302 1.55
 255  0.250  0.792  0.667- 539 1.55 303 1.55 311 1.55 350 1.55
 256  0.417  0.042  0.167- 351 1.55 540 1.55 304 1.55 312 1.55
 257  0.417  0.042  0.667- 352 1.55 541 1.55 305 1.55 313 1.55
 258  0.417  0.292  0.167- 542 1.55 353 1.55 314 1.55 306 1.55
 259  0.417  0.292  0.667- 354 1.54 543 1.55 307 1.55 315 1.55
 260  0.417  0.542  0.168- 316 1.55 355 1.55 308 1.55 544 1.56
 261  0.417  0.541  0.667- 574 1.49 309 1.55 356 1.55 545 1.55
 262  0.417  0.792  0.166- 357 1.54 546 1.55 310 1.55 317 1.55
 263  0.417  0.792  0.667- 318 1.55 311 1.55 547 1.55 358 1.55
 264  0.583  0.042  0.167- 359 1.55 548 1.55 319 1.55 312 1.55
 265  0.583  0.042  0.667- 360 1.55 549 1.55 320 1.55 313 1.55
 266  0.583  0.292  0.167- 550 1.55 361 1.55 314 1.55 321 1.55
 267  0.583  0.292  0.667- 315 1.55 551 1.55 362 1.55 322 1.55
 268  0.583  0.542  0.167- 316 1.55 363 1.55 323 1.55 552 1.55
 269  0.581  0.541  0.665- 574 1.51 364 1.55 324 1.55 553 1.57
 270  0.583  0.792  0.166- 365 1.54 554 1.55 325 1.55 317 1.55
 271  0.583  0.792  0.667- 318 1.55 326 1.55 555 1.55 366 1.55
 272  0.750  0.042  0.167- 367 1.55 556 1.55 319 1.55 327 1.55
 273  0.750  0.042  0.667- 368 1.55 557 1.55 320 1.55 328 1.55
 274  0.750  0.292  0.166- 329 1.55 558 1.55 321 1.55 369 1.55
 275  0.750  0.292  0.667- 559 1.55 322 1.55 370 1.55 330 1.55
 276  0.750  0.542  0.167- 560 1.54 323 1.55 371 1.55 331 1.55
 277  0.749  0.541  0.666- 372 1.55 561 1.55 332 1.55 324 1.55
 278  0.750  0.792  0.167- 373 1.55 562 1.55 333 1.55 325 1.55
 279  0.750  0.792  0.667- 563 1.55 334 1.55 326 1.55 374 1.55
 280  0.917  0.042  0.167- 327 1.55 375 1.55 288 1.55 564 1.55
 281  0.917  0.042  0.667- 565 1.55 328 1.55 376 1.55 289 1.55
 282  0.917  0.292  0.167- 290 1.55 566 1.55 329 1.55 377 1.55
 283  0.917  0.292  0.667- 567 1.55 330 1.55 291 1.55 378 1.55
 284  0.917  0.542  0.167- 568 1.55 379 1.55 292 1.55 331 1.55
 285  0.917  0.542  0.667- 569 1.55 332 1.55 380 1.55 293 1.55
 286  0.917  0.792  0.167- 381 1.55 333 1.55 570 1.55 294 1.55
 287  0.917  0.792  0.667- 571 1.55 382 1.55 295 1.55 334 1.55
 288  0.000  1.000  0.125-   1 1.55 198 1.55 280 1.55 240 1.55
 289  0.000  1.000  0.625-   2 1.55 199 1.55 241 1.55 281 1.55
 290  0.000  0.250  0.125- 282 1.55   3 1.55 192 1.55 242 1.55
 291  0.000  0.250  0.625-   4 1.55 283 1.55 243 1.55 193 1.55
 292  0.000  0.500  0.125-   5 1.55 284 1.55 194 1.55 244 1.55
 293  1.000  0.500  0.625-   6 1.55 285 1.55 195 1.55 245 1.55
 294  0.000  0.750  0.125-   7 1.55 196 1.55 286 1.55 246 1.55
 295  1.000  0.750  0.625-   8 1.55 197 1.55 287 1.55 247 1.55
 296  0.167  1.000  0.125-   9 1.55 240 1.55 206 1.55 248 1.55
 297  0.167  1.000  0.625- 241 1.55 207 1.55  10 1.55 249 1.55
 298  0.167  0.250  0.125-  11 1.55 242 1.55 200 1.55 250 1.55
 299  0.167  0.250  0.625- 243 1.55  12 1.55 201 1.55 251 1.55
 300  0.167  0.500  0.125-  13 1.55 244 1.55 202 1.55 252 1.55
 301  0.167  0.500  0.625- 245 1.54  14 1.55 203 1.55 253 1.55
 302  0.167  0.750  0.125- 246 1.55  15 1.55 254 1.55 204 1.55
 303  0.167  0.750  0.625-  16 1.55 255 1.55 205 1.55 247 1.55
 304  0.333  0.000  0.125- 214 1.55  17 1.55 248 1.55 256 1.55
 305  0.333  0.000  0.625-  18 1.55 215 1.55 249 1.55 257 1.55
 306  0.333  0.250  0.125-  19 1.55 208 1.55 250 1.55 258 1.55
 307  0.333  0.250  0.625- 209 1.54  20 1.55 251 1.55 259 1.55
 308  0.334  0.500  0.126- 252 1.55 210 1.55  21 1.55 260 1.55
 309  0.333  0.500  0.625- 253 1.54 211 1.55 261 1.55  22 1.55
 310  0.333  0.750  0.125-  23 1.55 254 1.55 262 1.55 212 1.55
 311  0.333  0.750  0.625-  24 1.55 263 1.55 255 1.55 213 1.55
 312  0.500  0.000  0.125- 222 1.55  25 1.55 264 1.55 256 1.55
 313  0.500  0.000  0.625- 223 1.55  26 1.55 265 1.55 257 1.55
 314  0.500  0.250  0.125-  27 1.54 216 1.55 266 1.55 258 1.55
 315  0.500  0.250  0.625-  28 1.55 217 1.55 267 1.55 259 1.55
 316  0.500  0.500  0.126- 260 1.55 268 1.55 218 1.55  29 1.55
 317  0.500  0.750  0.125- 220 1.54  30 1.54 270 1.55 262 1.55
 318  0.500  0.750  0.625- 263 1.55 271 1.55  31 1.55 221 1.55
 319  0.667  0.000  0.125- 230 1.55  32 1.55 272 1.55 264 1.55
 320  0.667  0.000  0.625-  33 1.55 231 1.55 273 1.55 265 1.55
 321  0.667  0.250  0.125-  34 1.55 224 1.55 274 1.55 266 1.55
 322  0.667  0.250  0.625- 225 1.55 275 1.55  35 1.55 267 1.55
 323  0.667  0.500  0.125- 276 1.55  36 1.55 226 1.55 268 1.55
 324  0.666  0.500  0.624- 227 1.54  37 1.55 277 1.55 269 1.55
 325  0.667  0.750  0.125-  38 1.55 228 1.55 278 1.55 270 1.55
 326  0.667  0.750  0.625-  39 1.55 271 1.55 279 1.55 229 1.55
 327  0.833  0.000  0.125-  40 1.55 238 1.55 280 1.55 272 1.55
 328  0.833  1.000  0.625- 281 1.55  41 1.55 239 1.55 273 1.55
 329  0.833  0.250  0.125- 274 1.55  42 1.55 282 1.55 232 1.55
 330  0.833  0.250  0.625-  43 1.55 283 1.55 233 1.55 275 1.55
 331  0.833  0.500  0.125-  44 1.55 284 1.55 234 1.55 276 1.55
 332  0.833  0.500  0.625- 285 1.55 235 1.55  45 1.55 277 1.55
 333  0.833  0.750  0.125- 236 1.55 286 1.55 278 1.55  46 1.55
 334  0.833  0.750  0.625-  47 1.55 279 1.55 237 1.55 287 1.55
 335  0.083  0.125  0.125-  48 1.55 192 1.55 240 1.55 200 1.55
 336  0.083  0.125  0.625- 193 1.55 201 1.55 241 1.55  49 1.55
 337  0.083  0.375  0.125- 194 1.55  50 1.55 242 1.55 202 1.55
 338  0.083  0.375  0.625- 195 1.55  51 1.55 243 1.55 203 1.55
 339  0.083  0.625  0.125- 196 1.55  52 1.55 244 1.55 204 1.55
 340  0.083  0.625  0.625-  53 1.55 245 1.55 205 1.55 197 1.55
 341  0.083  0.875  0.125-  54 1.55 198 1.55 246 1.55 206 1.55
 342  0.083  0.875  0.625- 247 1.55  55 1.55 207 1.55 199 1.55
 343  0.250  0.125  0.125-  56 1.55 248 1.55 200 1.55 208 1.55
 344  0.250  0.125  0.625- 249 1.55 201 1.55  57 1.55 209 1.55
 345  0.250  0.375  0.125-  58 1.54 202 1.55 210 1.55 250 1.55
 346  0.250  0.375  0.625-  59 1.55 203 1.55 251 1.55 211 1.55
 347  0.250  0.625  0.125-  60 1.54 204 1.55 212 1.55 252 1.55
 348  0.250  0.625  0.625-  61 1.54 213 1.54 253 1.55 205 1.55
 349  0.250  0.875  0.125-  62 1.55 254 1.55 206 1.55 214 1.55
 350  0.250  0.875  0.625-  63 1.55 207 1.55 215 1.55 255 1.55
 351  0.417  0.125  0.125- 256 1.55  64 1.55 208 1.55 216 1.55
 352  0.417  0.125  0.625- 257 1.55  65 1.55 217 1.55 209 1.55
 353  0.417  0.375  0.125-  66 1.55 258 1.55 210 1.55 218 1.55
 354  0.417  0.375  0.625- 259 1.54 211 1.54 219 1.55  67 1.55
 355  0.417  0.625  0.125- 220 1.55  68 1.55 212 1.55 260 1.55
 356  0.418  0.624  0.624- 221 1.54 261 1.55 213 1.56  69 1.56
 357  0.417  0.875  0.125- 262 1.54  70 1.55 214 1.55 222 1.55
 358  0.417  0.875  0.625-  71 1.55 215 1.55 223 1.55 263 1.55
 359  0.583  0.125  0.125- 264 1.55  72 1.55 224 1.55 216 1.55
 360  0.583  0.125  0.625- 265 1.55  73 1.55 225 1.55 217 1.55
 361  0.583  0.375  0.125-  74 1.55 266 1.55 226 1.55 218 1.55
 362  0.583  0.375  0.625- 227 1.54 267 1.55  75 1.55 219 1.56
 363  0.583  0.625  0.125-  76 1.55 228 1.55 220 1.55 268 1.55
 364  0.582  0.624  0.624- 221 1.54 269 1.55  77 1.56 229 1.56
 365  0.583  0.875  0.125- 270 1.54  78 1.55 230 1.55 222 1.55
 366  0.583  0.875  0.625-  79 1.55 231 1.55 223 1.55 271 1.55
 367  0.750  0.125  0.125- 272 1.55  80 1.55 232 1.55 224 1.55
 368  0.750  0.125  0.625- 273 1.55 233 1.55  81 1.55 225 1.55
 369  0.750  0.375  0.125- 226 1.54  82 1.54 234 1.55 274 1.55
 370  0.750  0.375  0.625-  83 1.55 235 1.55 275 1.55 227 1.55
 371  0.750  0.625  0.125-  84 1.55 236 1.55 228 1.55 276 1.55
 372  0.750  0.625  0.625-  85 1.54 229 1.54 277 1.55 237 1.55
 373  0.750  0.875  0.125- 278 1.55  86 1.55 238 1.55 230 1.55
 374  0.750  0.875  0.625-  87 1.55 239 1.55 231 1.55 279 1.55
 375  0.917  0.125  0.125- 232 1.55  88 1.55 280 1.55 192 1.55
 376  0.917  0.125  0.625- 193 1.55 281 1.55  89 1.55 233 1.55
 377  0.917  0.375  0.125- 234 1.55  90 1.55 194 1.55 282 1.55
 378  0.917  0.375  0.625- 195 1.55  91 1.55 283 1.55 235 1.55
 379  0.917  0.625  0.125-  92 1.55 284 1.55 236 1.55 196 1.55
 380  0.917  0.625  0.625-  93 1.55 285 1.55 237 1.55 197 1.55
 381  0.917  0.875  0.125-  94 1.55 286 1.55 198 1.55 238 1.55
 382  0.917  0.875  0.625-  95 1.55 287 1.55 199 1.55 239 1.55
 383  0.000  0.083  0.458-  89 1.55  49 1.55   2 1.55  96 1.55
 384  0.000  0.083  0.958-  97 1.55  88 1.55   1 1.55  48 1.55
 385  0.000  0.333  0.458-  91 1.54  51 1.55   4 1.55  98 1.55
 386  0.000  0.333  0.958-  90 1.55  99 1.55  50 1.55   3 1.55
 387  0.000  0.583  0.458- 100 1.55   6 1.55  93 1.55  53 1.55
 388  1.000  0.583  0.958-  92 1.55 101 1.55   5 1.55  52 1.55
 389  0.000  0.833  0.458-  55 1.55   8 1.55  95 1.55 102 1.55
 390  1.000  0.833  0.958- 103 1.55   7 1.55  94 1.55  54 1.55
 391  0.167  0.083  0.458-  57 1.54  10 1.54  49 1.55 104 1.55
 392  0.167  0.083  0.958- 105 1.55   9 1.55  48 1.55  56 1.55
 393  0.167  0.333  0.458-  59 1.55  51 1.55 106 1.55  12 1.55
 394  0.167  0.333  0.958- 107 1.55  50 1.55  11 1.55  58 1.55
 395  0.167  0.583  0.458- 108 1.55  14 1.55  53 1.55  61 1.55
 396  0.167  0.583  0.958-  52 1.55  13 1.55 109 1.55  60 1.55
 397  0.167  0.833  0.458- 110 1.55  55 1.55  63 1.55  16 1.55
 398  0.167  0.833  0.958- 111 1.55  15 1.55  54 1.55  62 1.55
 399  0.333  0.083  0.458-  18 1.55 112 1.55  57 1.55  65 1.55
 400  0.333  0.083  0.958-  17 1.55 113 1.55  56 1.55  64 1.55
 401  0.333  0.332  0.459-  20 1.54 114 1.55  59 1.55  67 1.55
 402  0.333  0.333  0.959-  19 1.55 115 1.55  58 1.55  66 1.55
 403  0.335  0.583  0.458- 116 1.54  22 1.55  61 1.56  69 1.56
 404  0.333  0.583  0.959- 117 1.54  60 1.54  68 1.55  21 1.55
 405  0.333  0.834  0.458-  24 1.54  63 1.54 118 1.55  71 1.55
 406  0.333  0.833  0.958- 119 1.55  23 1.55  62 1.55  70 1.55
 407  0.500  0.083  0.458-  26 1.55  73 1.55 120 1.55  65 1.55
 408  0.500  0.083  0.958-  25 1.55 121 1.55  72 1.55  64 1.55
 409  0.500  0.334  0.459- 122 1.54  28 1.55  75 1.55  67 1.56
 410  0.500  0.333  0.959- 123 1.54  27 1.54  74 1.55  66 1.55
 411  0.500  0.583  0.958-  76 1.55  29 1.55  68 1.55 125 1.55
 412  0.500  0.834  0.458-  31 1.54  79 1.55  71 1.55 126 1.55
 413  0.500  0.833  0.958- 127 1.55  30 1.55  78 1.55  70 1.55
 414  0.667  0.083  0.458-  33 1.55 128 1.55  81 1.55  73 1.55
 415  0.667  0.083  0.958-  32 1.55 129 1.55  80 1.55  72 1.55
 416  0.667  0.332  0.458-  75 1.54  35 1.54 130 1.55  83 1.55
 417  0.667  0.333  0.958-  34 1.55 131 1.55  82 1.55  74 1.55
 418  0.666  0.583  0.458- 132 1.54  37 1.55  85 1.55  77 1.56
 419  0.667  0.583  0.958-  84 1.55 133 1.55  76 1.55  36 1.55
 420  0.667  0.834  0.458-  39 1.54  87 1.54 134 1.55  79 1.55
 421  0.667  0.833  0.958- 135 1.55  38 1.55  86 1.55  78 1.55
 422  0.833  0.083  0.458-  41 1.55  81 1.55  89 1.55 136 1.55
 423  0.833  0.083  0.958- 137 1.55  40 1.55  80 1.55  88 1.55
 424  0.834  0.333  0.458-  83 1.54  91 1.55  43 1.55 138 1.55
 425  0.833  0.333  0.958- 139 1.55  82 1.55  90 1.55  42 1.55
 426  0.833  0.583  0.458- 140 1.55  45 1.55  93 1.55  85 1.55
 427  0.833  0.583  0.958-  44 1.55  84 1.55 141 1.55  92 1.55
 428  0.833  0.833  0.458-  95 1.55 142 1.55  47 1.55  87 1.55
 429  0.833  0.833  0.958- 143 1.55  46 1.55  86 1.55  94 1.55
 430  0.083  0.208  0.458-  12 1.55   4 1.55  49 1.55 144 1.55
 431  0.083  0.208  0.958- 145 1.55   3 1.55  11 1.55  48 1.55
 432  0.083  0.458  0.458-  14 1.54   6 1.54 146 1.55  51 1.55
 433  0.083  0.458  0.958- 147 1.55   5 1.55  50 1.55  13 1.55
 434  0.083  0.708  0.458-  53 1.55 148 1.55  16 1.55   8 1.55
 435  0.083  0.708  0.958-  52 1.55 149 1.55  15 1.55   7 1.55
 436  0.083  0.958  0.458-  10 1.55  55 1.55   2 1.55 150 1.55
 437  0.083  0.958  0.958- 151 1.55  54 1.55   9 1.55   1 1.55
 438  0.250  0.208  0.458-  20 1.54  57 1.54 152 1.55  12 1.55
 439  0.250  0.208  0.958- 153 1.55  56 1.55  11 1.55  19 1.55
 440  0.249  0.459  0.459-  14 1.54 154 1.55  59 1.55  22 1.55
 441  0.250  0.458  0.959-  13 1.55  58 1.55 155 1.55  21 1.55
 442  0.250  0.708  0.458- 156 1.55  24 1.55  16 1.55  61 1.55
 443  0.250  0.708  0.958-  23 1.55  15 1.55  60 1.55 157 1.55
 444  0.250  0.958  0.458-  63 1.55  10 1.55 158 1.55  18 1.55
 445  0.250  0.958  0.958- 159 1.55  62 1.55   9 1.55  17 1.55
 446  0.417  0.208  0.458-  65 1.55 160 1.55  20 1.55  28 1.55
 447  0.417  0.208  0.958-  64 1.55 161 1.55  19 1.55  27 1.55
 448  0.417  0.458  0.959-  21 1.55 163 1.55  66 1.55  29 1.55
 449  0.416  0.709  0.458-  24 1.54  69 1.55 164 1.55  31 1.55
 450  0.417  0.708  0.958-  23 1.55  30 1.55 165 1.55  68 1.55
 451  0.417  0.958  0.458-  71 1.54  18 1.55 166 1.55  26 1.55
 452  0.417  0.958  0.958-  70 1.55 167 1.55  17 1.55  25 1.55
 453  0.583  0.208  0.458-  73 1.55 168 1.55  35 1.55  28 1.55
 454  0.583  0.208  0.958-  72 1.55  34 1.55 169 1.55  27 1.55
 455  0.583  0.458  0.958-  36 1.55  74 1.55  29 1.55 171 1.55
 456  0.584  0.709  0.458-  39 1.54  77 1.54 172 1.55  31 1.55
 457  0.583  0.708  0.958-  38 1.55  76 1.55  30 1.55 173 1.55
 458  0.583  0.958  0.458-  79 1.54  33 1.55  26 1.55 174 1.55
 459  0.583  0.958  0.958-  78 1.55 175 1.55  32 1.55  25 1.55
 460  0.750  0.208  0.458-  35 1.54  81 1.54  43 1.55 176 1.55
 461  0.750  0.208  0.958- 177 1.55  80 1.55  42 1.55  34 1.55
 462  0.751  0.458  0.458-  45 1.54  37 1.54 178 1.55  83 1.55
 463  0.750  0.458  0.958-  44 1.55  82 1.55 179 1.55  36 1.55
 464  0.750  0.708  0.458- 180 1.55  47 1.55  39 1.55  85 1.55
 465  0.750  0.708  0.958-  38 1.55  84 1.55  46 1.55 181 1.55
 466  0.750  0.958  0.458-  87 1.54  41 1.55 182 1.55  33 1.55
 467  0.750  0.958  0.958- 183 1.55  86 1.55  40 1.55  32 1.55
 468  0.917  0.208  0.458-  43 1.55   4 1.55  89 1.55 184 1.55
 469  0.917  0.208  0.958-  42 1.55 185 1.55  88 1.55   3 1.55
 470  0.917  0.458  0.458-  45 1.54   6 1.54 186 1.55  91 1.55
 471  0.917  0.458  0.958- 187 1.55  44 1.55  90 1.55   5 1.55
 472  0.917  0.708  0.458-  93 1.55 188 1.55  47 1.55   8 1.55
 473  0.917  0.708  0.958-  92 1.55  46 1.55 189 1.55   7 1.55
 474  0.917  0.958  0.458-  41 1.55  95 1.55   2 1.55 190 1.55
 475  0.917  0.958  0.958- 191 1.55  40 1.55  94 1.55   1 1.55
 476  0.000  0.167  0.292- 184 1.55 192 1.55  96 1.55 144 1.55
 477  0.000  0.167  0.792- 193 1.55 185 1.55  97 1.55 145 1.55
 478  0.000  0.417  0.292- 186 1.55 146 1.55 194 1.55  98 1.55
 479  1.000  0.417  0.792- 195 1.55 187 1.55  99 1.55 147 1.55
 480  0.000  0.667  0.292- 196 1.55 100 1.55 188 1.55 148 1.55
 481  1.000  0.667  0.792- 197 1.55 101 1.55 189 1.55 149 1.55
 482  0.000  0.917  0.292- 102 1.55 198 1.55 150 1.55 190 1.55
 483  1.000  0.917  0.792- 199 1.55 103 1.55 191 1.55 151 1.55
 484  0.167  0.167  0.292- 152 1.55 144 1.55 200 1.55 104 1.55
 485  0.167  0.167  0.792- 201 1.55 105 1.55 145 1.55 153 1.55
 486  0.167  0.417  0.292- 202 1.55 146 1.55 154 1.55 106 1.55
 487  0.167  0.417  0.792- 147 1.55 203 1.55 107 1.55 155 1.55
 488  0.167  0.667  0.292- 204 1.55 148 1.55 156 1.55 108 1.55
 489  0.167  0.667  0.792- 157 1.55 205 1.55 109 1.55 149 1.55
 490  0.167  0.917  0.292- 150 1.55 206 1.55 110 1.55 158 1.55
 491  0.167  0.917  0.792- 207 1.55 111 1.55 151 1.55 159 1.55
 492  0.333  0.167  0.292- 112 1.55 208 1.55 152 1.55 160 1.55
 493  0.333  0.167  0.792- 113 1.55 209 1.55 153 1.55 161 1.55
 494  0.333  0.417  0.292- 210 1.54 154 1.55 114 1.55 162 1.57
 495  0.333  0.417  0.792- 155 1.55 115 1.55 163 1.55 211 1.55
 496  0.333  0.667  0.292- 212 1.55 156 1.55 164 1.55 116 1.55
 497  0.334  0.666  0.791- 165 1.55 117 1.55 157 1.55 213 1.55
 498  0.333  0.917  0.292- 118 1.54 158 1.55 214 1.55 166 1.55
 499  0.333  0.917  0.792- 215 1.55 119 1.55 159 1.55 167 1.55
 500  0.500  0.167  0.292- 120 1.55 216 1.55 168 1.55 160 1.55
 501  0.500  0.167  0.792- 121 1.55 217 1.55 169 1.55 161 1.55
 502  0.500  0.417  0.293- 122 1.54 170 1.55 218 1.55 162 1.55
 503  0.500  0.416  0.793- 123 1.54 171 1.55 163 1.55 219 1.55
 504  0.500  0.668  0.290- 220 1.54 124 1.54 172 1.55 164 1.55
 505  0.500  0.667  0.791- 173 1.55 165 1.55 125 1.55 221 1.55
 506  0.500  0.917  0.292- 126 1.54 222 1.55 174 1.55 166 1.55
 507  0.500  0.917  0.792- 223 1.55 127 1.55 175 1.55 167 1.55
 508  0.667  0.167  0.292- 128 1.55 224 1.55 176 1.55 168 1.55
 509  0.667  0.167  0.792- 129 1.55 225 1.55 177 1.55 169 1.55
 510  0.667  0.416  0.290- 226 1.54 170 1.54 178 1.55 130 1.55
 511  0.666  0.417  0.791- 179 1.55 131 1.55 171 1.55 227 1.55
 512  0.667  0.667  0.291- 228 1.54 180 1.55 172 1.55 132 1.55
 513  0.666  0.666  0.791- 173 1.55 133 1.55 181 1.55 229 1.55
 514  0.667  0.917  0.292- 134 1.54 182 1.55 230 1.55 174 1.55
 515  0.667  0.917  0.792- 231 1.55 135 1.55 183 1.55 175 1.55
 516  0.833  0.167  0.292- 176 1.55 136 1.55 232 1.55 184 1.55
 517  0.833  0.167  0.792- 233 1.55 185 1.55 137 1.55 177 1.55
 518  0.834  0.417  0.291- 178 1.54 186 1.55 234 1.55 138 1.55
 519  0.833  0.417  0.792- 235 1.55 139 1.55 187 1.55 179 1.55
 520  0.833  0.667  0.292- 188 1.55 236 1.55 140 1.55 180 1.55
 521  0.833  0.667  0.791- 181 1.55 237 1.55 141 1.55 189 1.55
 522  0.833  0.917  0.292- 190 1.55 142 1.55 238 1.55 182 1.55
 523  0.833  0.917  0.792- 239 1.55 143 1.55 191 1.55 183 1.55
 524  0.083  0.042  0.292- 104 1.55 240 1.55  96 1.55 150 1.55
 525  0.083  0.042  0.792- 241 1.55 151 1.55 105 1.55  97 1.55
 526  0.083  0.292  0.292-  98 1.55 242 1.55 144 1.55 106 1.55
 527  0.083  0.292  0.792- 243 1.55  99 1.55 107 1.55 145 1.55
 528  0.083  0.542  0.292- 244 1.55 100 1.55 146 1.55 108 1.55
 529  0.083  0.542  0.792- 245 1.55 101 1.55 109 1.55 147 1.55
 530  0.083  0.792  0.292- 110 1.55 246 1.55 102 1.55 148 1.55
 531  0.083  0.792  0.792- 247 1.55 149 1.55 111 1.55 103 1.55
 532  0.250  0.042  0.292- 158 1.55 248 1.55 104 1.55 112 1.55
 533  0.250  0.042  0.792- 249 1.55 159 1.55 105 1.55 113 1.55
 534  0.250  0.292  0.292- 250 1.55 106 1.55 152 1.55 114 1.55
 535  0.250  0.292  0.792- 153 1.55 251 1.55 107 1.55 115 1.55
 536  0.250  0.542  0.292- 252 1.55 108 1.55 154 1.55 116 1.55
 537  0.250  0.542  0.792- 109 1.54 155 1.55 117 1.55 253 1.55
 538  0.250  0.792  0.292- 110 1.55 254 1.55 118 1.55 156 1.55
 539  0.250  0.792  0.792- 255 1.55 157 1.55 119 1.55 111 1.55
 540  0.417  0.042  0.292- 166 1.55 256 1.55 112 1.55 120 1.55
 541  0.417  0.042  0.792- 167 1.55 257 1.55 113 1.55 121 1.55
 542  0.417  0.292  0.292- 258 1.55 114 1.55 160 1.55 122 1.55
 543  0.417  0.292  0.792- 161 1.54 115 1.55 123 1.55 259 1.55
 544  0.417  0.542  0.294- 116 1.54 162 1.55 124 1.56 260 1.56
 545  0.416  0.542  0.793- 117 1.54 125 1.55 163 1.55 261 1.55
 546  0.417  0.792  0.291- 164 1.54 262 1.55 118 1.55 126 1.55
 547  0.417  0.792  0.792- 263 1.55 119 1.55 127 1.55 165 1.55
 548  0.583  0.042  0.292- 174 1.55 264 1.55 128 1.55 120 1.55
 549  0.583  0.042  0.792- 265 1.55 175 1.55 129 1.55 121 1.55
 550  0.583  0.292  0.292- 266 1.55 168 1.55 130 1.55 122 1.55
 551  0.583  0.292  0.792- 169 1.55 131 1.55 123 1.55 267 1.55
 552  0.583  0.542  0.293- 132 1.54 170 1.55 268 1.55 124 1.56
 553  0.583  0.542  0.792- 133 1.54 125 1.55 171 1.55 269 1.57
 554  0.583  0.792  0.291- 172 1.54 270 1.55 134 1.55 126 1.55
 555  0.583  0.792  0.792- 271 1.55 135 1.55 127 1.55 173 1.55
 556  0.750  0.042  0.292- 182 1.55 136 1.55 272 1.55 128 1.55
 557  0.750  0.042  0.792- 273 1.55 183 1.55 137 1.55 129 1.55
 558  0.750  0.292  0.291- 130 1.54 274 1.55 176 1.55 138 1.55
 559  0.750  0.292  0.792- 275 1.55 139 1.55 177 1.55 131 1.55
 560  0.750  0.542  0.292- 276 1.54 140 1.55 178 1.55 132 1.55
 561  0.750  0.542  0.791- 179 1.55 133 1.55 141 1.55 277 1.55
 562  0.750  0.792  0.292- 142 1.55 278 1.55 180 1.55 134 1.55
 563  0.750  0.792  0.792- 279 1.55 181 1.55 135 1.55 143 1.55
 564  0.917  0.042  0.292- 136 1.55 190 1.55 280 1.55  96 1.55
 565  0.917  0.042  0.792- 281 1.55 137 1.55 191 1.55  97 1.55
 566  0.917  0.292  0.292- 138 1.55 282 1.55 184 1.55  98 1.55
 567  0.917  0.292  0.792- 283 1.55 139 1.55 185 1.55  99 1.55
 568  0.917  0.542  0.292- 284 1.55 100 1.55 186 1.55 140 1.55
 569  0.917  0.542  0.792- 285 1.55 141 1.55 187 1.55 101 1.55
 570  0.917  0.792  0.292- 142 1.55 188 1.55 286 1.55 102 1.55
 571  0.917  0.792  0.792- 287 1.55 143 1.55 189 1.55 103 1.55
 572  0.589  0.456  0.455- 573 1.09 170 1.52  37 1.52  75 1.52
 573  0.530  0.484  0.485- 572 1.09
 574  0.498  0.499  0.633- 261 1.49 219 1.49 269 1.51
 575  0.410  0.455  0.458-  22 1.49  67 1.49 162 1.51
 576  0.500  0.591  0.454- 124 1.48  77 1.48  69 1.48
 
  LATTYP: Found a simple monoclinic cell.
 ALAT       =    12.3703241348
 B/A-ratio  =     1.2248453018
 C/A-ratio  =     1.4141600350
 COS(beta)  =    -0.0000282295
  
  Lattice vectors:
  
 A1 = (   0.0000000000,  -0.0003492082,  12.3703241299)
 A2 = (  15.1517333984,   0.0000000000,   0.0000000000)
 A3 = (   0.0000000000,  17.4936180115,   0.0000000000)


Analysis of symmetry for initial positions (statically):
=====================================================================
 Subroutine PRICEL returns:
 Original cell was already a primitive cell.
 

 Routine SETGRP: Setting up the symmetry group for a 
 simple monoclinic supercell.


 Subroutine GETGRP returns: Found  1 space group operations
 (whereof  1 operations were pure point group operations)
 out of a pool of  4 trial point group operations.


The static configuration has the point symmetry C_1 .


Analysis of symmetry for dynamics (positions and initial velocities):
=====================================================================
 Subroutine PRICEL returns:
 Original cell was already a primitive cell.
 

 Routine SETGRP: Setting up the symmetry group for a 
 simple monoclinic supercell.


 Subroutine GETGRP returns: Found  1 space group operations
 (whereof  1 operations were pure point group operations)
 out of a pool of  4 trial point group operations.


The dynamic configuration has the point symmetry C_1 .


Analysis of structural, dynamic, and magnetic symmetry:
=====================================================================
 Subroutine PRICEL returns:
 Original cell was already a primitive cell.
 

 Routine SETGRP: Setting up the symmetry group for a 
 simple monoclinic supercell.


 Subroutine GETGRP returns: Found  1 space group operations
 (whereof  1 operations were pure point group operations)
 out of a pool of  4 trial point group operations.


The overall configuration has the point symmetry C_1 .


 Subroutine INISYM returns: Found  1 space group operations
 (whereof  1 operations are pure point group operations),
 and found     1 'primitive' translations


----------------------------------------------------------------------------------------

                                     Primitive cell                                     

  volume of cell :    3278.8612

  direct lattice vectors                    reciprocal lattice vectors
    15.151733398  0.000000000  0.000000000     0.065999049  0.000000000  0.000000000
     0.000000000 17.493618012  0.000000000     0.000000000  0.057163704  0.000001614
     0.000000000 -0.000349208 12.370324130     0.000000000  0.000000000  0.080838626

  length of vectors
    15.151733398 17.493618012 12.370324135     0.065999049  0.057163704  0.080838626

  position of ions in fractional coordinates (direct lattice)
     0.000009218  0.999960957  0.999977728
     0.000015276  0.999937945  0.500002640
     0.000041441  0.249982948  0.999954630
     0.000037581  0.249939452  0.499968658
     0.000016700  0.499991681  0.000020778
     0.000004795  0.499938112  0.499973237
     0.999993214  0.749952871  0.999957318
     0.000023803  0.749946701  0.500016500
     0.166658891  0.999979144  0.999998029
     0.166592802  0.999952397  0.500006256
     0.166676847  0.249996268  0.000041705
     0.166607815  0.249876826  0.500057785
     0.166708704  0.500002944  0.000198390
     0.166196376  0.499878195  0.500089098
     0.166701550  0.749961191  0.999972557
     0.166743154  0.749935981  0.500019836
     0.333327412  0.000021530  0.999997472
     0.333309541  0.000053063  0.500000231
     0.333343873  0.249991400  0.000180459
     0.332950465  0.249526649  0.500117918
     0.333423617  0.500059754  0.000584894
     0.333690281  0.499201118  0.500204973
     0.333370406  0.749989709  0.999971480
     0.333260711  0.750442174  0.499883895
     0.499998619  0.000044462  0.999962149
     0.500007690  0.000075716  0.499984208
     0.500003313  0.249918067  0.000345600
     0.499964558  0.250213099  0.500038779
     0.499984103  0.500009569  0.000350558
     0.499997797  0.750095793  0.999761798
     0.500055061  0.750534278  0.499854010
     0.666670529  0.000032253  0.999952738
     0.666703198  0.000067752  0.499984127
     0.666677963  0.249996128  0.000013231
     0.667088260  0.249550759  0.499902732
     0.666572857  0.500049666  0.000159490
     0.667810245  0.499271746  0.499039616
     0.666637855  0.749995445  0.999849972
     0.666867445  0.750558168  0.499775599
     0.833355505  0.999984800  0.999966365
     0.833422006  0.999980866  0.499994271
     0.833394151  0.249972822  0.999898335
     0.833464487  0.249871401  0.499944913
     0.833310793  0.499982424  0.999929649
     0.833862110  0.499882695  0.499801265
     0.833283151  0.749958423  0.999866592
     0.833318605  0.749980262  0.499941631
     0.083340563  0.124979914  0.999977791
     0.083307905  0.124928288  0.499997653
     0.083365626  0.374992432  0.000011084
     0.083304355  0.374943897  0.500044790
     0.083329145  0.624979484  0.000086913
     0.083529253  0.624985389  0.500030975
     0.083332216  0.874956468  0.999974826
     0.083333856  0.874936851  0.500001634
     0.250001096  0.124993573  0.000042509
     0.249844977  0.124813897  0.500024431
     0.249993478  0.374976908  0.000144008
     0.249877194  0.374866470  0.500243870
     0.249952927  0.625025196  0.000381116
     0.250903616  0.624860654  0.500059052
     0.250005381  0.874983599  0.999963949
     0.249952612  0.875121520  0.499965342
     0.416661983  0.125002613  0.000082493
     0.416675698  0.125016830  0.500037614
     0.416697925  0.374964122  0.000478878
     0.416130990  0.375404995  0.500259309
     0.416652955  0.624975379  0.000288149
     0.418676209  0.625635330  0.498248518
     0.416668853  0.875059716  0.999879702
     0.416653820  0.875206590  0.499937486
     0.583345068  0.125016334  0.000018635
     0.583338469  0.125022649  0.500006089
     0.583293136  0.374963839  0.000259654
     0.584617081  0.374383621  0.499333055
     0.583321239  0.624985309  0.000053505
     0.581653085  0.625955101  0.497932859
     0.583324984  0.875067416  0.999843980
     0.583387205  0.875229054  0.499920040
     0.750028982  0.124997460  0.999955257
     0.750167962  0.124847734  0.499965133
     0.750111162  0.374931801  0.999759686
     0.750354163  0.374792709  0.499864572
     0.749975691  0.624984770  0.999987576
     0.749303310  0.624996531  0.499796921
     0.749995422  0.874992645  0.999910140
     0.750094852  0.875166861  0.499939770
     0.916708339  0.124976242  0.999939523
     0.916745174  0.124931449  0.499971690
     0.916735788  0.374972996  0.999865249
     0.916808274  0.374937312  0.499932549
     0.916636564  0.624965257  0.999947888
     0.916565986  0.625002740  0.499946496
     0.916666195  0.874958030  0.999954106
     0.916698384  0.874955279  0.499992859
     0.000037700  0.083295206  0.333305760
     0.000004132  0.083291202  0.833319555
     0.000094066  0.333303216  0.333302508
     0.000009693  0.333314452  0.833276744
     0.000087947  0.583321243  0.333356833
     0.999941612  0.583295424  0.833337306
     0.000033404  0.833300349  0.333324149
     0.999988230  0.833265676  0.833313203
     0.166648163  0.083303509  0.333315429
     0.166664296  0.083290700  0.833343143
     0.166765295  0.333319792  0.333450386
     0.166671750  0.333307532  0.833384368
     0.166891795  0.583312736  0.333493917
     0.166652690  0.583279806  0.833457744
     0.166699697  0.833335409  0.333318357
     0.166692187  0.833265535  0.833299006
     0.333313016  0.083372880  0.333353623
     0.333298268  0.083303011  0.833377312
     0.333415511  0.333306168  0.333721110
     0.333306147  0.333287039  0.833551403
     0.333690337  0.583296275  0.333827651
     0.333082675  0.583349152  0.834102082
     0.333297776  0.833549880  0.333223160
     0.333333786  0.833294567  0.833255034
     0.500016346  0.083392592  0.333370803
     0.499992134  0.083355390  0.833331838
     0.500117733  0.333500219  0.333801426
     0.499912187  0.333039934  0.834149165
     0.500253285  0.585250105  0.335096354
     0.499817372  0.583218347  0.833372632
     0.500044707  0.833595253  0.333199885
     0.499988648  0.833337882  0.833211219
     0.666737377  0.083368582  0.333306949
     0.666685181  0.083330856  0.833305915
     0.667027357  0.333092800  0.333110489
     0.666585397  0.333337303  0.833259968
     0.666761233  0.583390376  0.333239661
     0.666495717  0.583242349  0.833386689
     0.666793080  0.833603417  0.333170785
     0.666638616  0.833293099  0.833199876
     0.833427412  0.083294346  0.333278668
     0.833337945  0.083308213  0.833296127
     0.833492606  0.333266132  0.333207897
     0.833321257  0.333307931  0.833177058
     0.833361242  0.583350434  0.333254166
     0.833162965  0.583247469  0.833168663
     0.833377464  0.833370115  0.333273903
     0.833280555  0.833259033  0.833255923
     0.083382046  0.208304301  0.333329967
     0.083354796  0.208310131  0.833334062
     0.083400285  0.458303447  0.333396127
     0.083336395  0.458320738  0.833411747
     0.083405747  0.708314994  0.333407840
     0.083373529  0.708266543  0.833293955
     0.083352066  0.958301160  0.333326374
     0.083348841  0.958279558  0.833343766
     0.249977123  0.208279581  0.333432584
     0.249990221  0.208294495  0.833437434
     0.250073062  0.458333792  0.333704355
     0.250013344  0.458312423  0.833581878
     0.250106126  0.708371536  0.333433543
     0.250126507  0.708246302  0.833161319
     0.249977405  0.958404167  0.333328689
     0.249988709  0.958299815  0.833363070
     0.416678229  0.208388995  0.333492981
     0.416609500  0.208281234  0.833493521
     0.417188268  0.458531329  0.336372179
     0.416517297  0.458230481  0.833750133
     0.416632827  0.708847590  0.333022347
     0.416682233  0.708221370  0.833191885
     0.416648683  0.958456263  0.333296939
     0.416641659  0.958344580  0.833294272
     0.583393601  0.208352075  0.333405427
     0.583355385  0.208331980  0.833360719
     0.584830046  0.457736644  0.332916732
     0.583152629  0.458210779  0.833364109
     0.583595059  0.708934364  0.332869202
     0.583219265  0.708216619  0.833088076
     0.583388013  0.958466093  0.333279783
     0.583339534  0.958352839  0.833276772
     0.750165157  0.208219397  0.333276569
     0.749999691  0.208327906  0.833313168
     0.750515072  0.458234823  0.332997683
     0.749812458  0.458308414  0.833219464
     0.750058816  0.708437423  0.333261180
     0.749774993  0.708205093  0.832995104
     0.750076864  0.958426817  0.333304956
     0.749995506  0.958312134  0.833327319
     0.916731531  0.208289214  0.333280763
     0.916668971  0.208313647  0.833272746
     0.916855100  0.458293373  0.333232095
     0.916601969  0.458313359  0.833283393
     0.916697795  0.708333480  0.333334049
     0.916566235  0.708255190  0.833232320
     0.916699918  0.958307473  0.333320502
     0.916647718  0.958281606  0.833331449
     0.000047764  0.166640239  0.166610678
     0.000006360  0.166620913  0.666635364
     0.000089935  0.416642122  0.166614834
     0.999967243  0.416636632  0.666647889
     0.000035908  0.666652935  0.166683153
     0.999975557  0.666600833  0.666610302
     0.000017100  0.916635440  0.166625786
     0.999996406  0.916602894  0.666668948
     0.166676354  0.166661608  0.166670772
     0.166633559  0.166604210  0.666703778
     0.166723544  0.416653963  0.166792709
     0.166649904  0.416619126  0.666793889
     0.166715753  0.666680776  0.166858131
     0.166848256  0.666561260  0.666586075
     0.166666566  0.916669782  0.166640158
     0.166662932  0.916604320  0.666680850
     0.333348556  0.166697663  0.166771878
     0.333266222  0.166599989  0.666780052
     0.333295779  0.416628310  0.166990754
     0.333347666  0.416599390  0.666826366
     0.333402983  0.666735104  0.166867673
     0.333837140  0.666321573  0.665913164
     0.333322400  0.916769699  0.166592555
     0.333329340  0.916674348  0.666643303
     0.500020299  0.166682229  0.166788767
     0.499985937  0.166744929  0.666668777
     0.500025024  0.416762920  0.167505086
     0.499456367  0.417093774  0.666980571
     0.500076346  0.667146837  0.166199736
     0.499894652  0.666387386  0.666277036
     0.500011028  0.916791322  0.166560797
     0.499997716  0.916711025  0.666603521
     0.666720872  0.166682190  0.166667495
     0.666679007  0.166674166  0.666676863
     0.667144425  0.416481040  0.166202685
     0.666329674  0.416640316  0.666321653
     0.666731612  0.666771853  0.166595012
     0.665988645  0.666279451  0.665713976
     0.666705899  0.916781702  0.166554494
     0.666664513  0.916687135  0.666621716
     0.833429687  0.166633807  0.166580000
     0.833364542  0.166636696  0.666634437
     0.833526182  0.416613621  0.166437809
     0.833232391  0.416633397  0.666560351
     0.833370849  0.666690672  0.166638027
     0.833059502  0.666545300  0.666457536
     0.833371237  0.916681034  0.166612630
     0.833327893  0.916616968  0.666667642
     0.083351840  0.041643735  0.166627468
     0.083331622  0.041609669  0.666675097
     0.083391288  0.291656737  0.166665873
     0.083338672  0.291621940  0.666662252
     0.083421022  0.541664601  0.166768675
     0.083313005  0.541615399  0.666733157
     0.083372475  0.791644440  0.166645810
     0.083368178  0.791591760  0.666651614
     0.249990393  0.041694866  0.166632331
     0.249957874  0.041615172  0.666675680
     0.250029741  0.291668688  0.166773368
     0.249964530  0.291593250  0.666760272
     0.250154976  0.541694842  0.167039582
     0.250135756  0.541456228  0.666752230
     0.250026071  0.791700328  0.166632294
     0.250066024  0.791580895  0.666600460
     0.416651931  0.041722153  0.166667825
     0.416644221  0.041695045  0.666661844
     0.416710806  0.291704514  0.167006591
     0.416532884  0.291712766  0.666818102
     0.417098908  0.541835173  0.167923161
     0.417012088  0.540857702  0.666913832
     0.416668365  0.791872714  0.166462373
     0.416681321  0.791653859  0.666558981
     0.583364934  0.041725908  0.166636900
     0.583346059  0.041707294  0.666641291
     0.583390593  0.291669814  0.166822627
     0.583240989  0.291878538  0.666559589
     0.583143838  0.541900289  0.167416294
     0.581467063  0.540683771  0.665132420
     0.583397243  0.791899272  0.166388921
     0.583293569  0.791655077  0.666519962
     0.750045980  0.041697521  0.166595061
     0.750030408  0.041646762  0.666635887
     0.750150743  0.291593455  0.166485638
     0.749975730  0.291642958  0.666561512
     0.750053978  0.541700095  0.166631146
     0.749409115  0.541465707  0.666312432
     0.750033665  0.791725370  0.166541368
     0.749907900  0.791578685  0.666559521
     0.916702428  0.041643321  0.166612406
     0.916667703  0.041623867  0.666660456
     0.916739147  0.291639446  0.166560002
     0.916664658  0.291633822  0.666581022
     0.916703080  0.541663983  0.166631051
     0.916529190  0.541615622  0.666616699
     0.916673234  0.791652535  0.166602044
     0.916615588  0.791590859  0.666632306
     0.000021190  0.999965580  0.124948026
     0.000000423  0.999939082  0.624999397
     0.000056859  0.249989546  0.124934205
     0.000009607  0.249966471  0.624950073
     0.000063878  0.500009546  0.124992192
     0.999929878  0.499996681  0.624990358
     0.000020385  0.749975587  0.124954544
     0.999991397  0.749941789  0.624984047
     0.166662144  0.999992502  0.124956364
     0.166633754  0.999927977  0.624997973
     0.166708213  0.250006031  0.125000513
     0.166647332  0.249930111  0.625041510
     0.166766980  0.500016791  0.125165936
     0.166559896  0.499981634  0.625099285
     0.166699494  0.749989142  0.124989138
     0.166714627  0.749920257  0.624973975
     0.333328642  0.000053957  0.124947309
     0.333319492  0.000000982  0.624984592
     0.333381923  0.250030861  0.125132111
     0.333269039  0.249832077  0.625130828
     0.333550042  0.500064640  0.125716021
     0.333298084  0.499876912  0.625169715
     0.333374383  0.750057083  0.124957245
     0.333427098  0.749941775  0.624827208
     0.500007412  0.000070452  0.124942024
     0.499996154  0.000033402  0.624970283
     0.500025777  0.249979174  0.125204821
     0.499936740  0.250088249  0.625020650
     0.500057182  0.500078949  0.125611695
     0.500034043  0.750261685  0.124553049
     0.499981139  0.750011601  0.624842643
     0.666690062  0.000063065  0.124911893
     0.666676231  0.000019569  0.624962180
     0.666707836  0.250004830  0.124962664
     0.666645234  0.249957216  0.624956437
     0.666662062  0.500064294  0.125210177
     0.665962196  0.499695872  0.624141556
     0.666696608  0.750084022  0.124813425
     0.666532458  0.749948975  0.624725786
     0.833374703  0.000000907  0.124928768
     0.833363890  0.999954739  0.624982759
     0.833424153  0.249961716  0.124847084
     0.833344744  0.249961351  0.624931758
     0.833382666  0.500005167  0.124878490
     0.833202229  0.499976206  0.624845185
     0.833340480  0.750003751  0.124883381
     0.833259192  0.749926737  0.624905194
     0.083356293  0.124979412  0.124951218
     0.083321821  0.124939690  0.624999277
     0.083400633  0.375008193  0.124984052
     0.083313706  0.374979676  0.625044419
     0.083370312  0.625004891  0.125077672
     0.083399105  0.624947912  0.624987556
     0.083340975  0.874971459  0.124958993
     0.083332172  0.874925230  0.624996815
     0.250015325  0.125019988  0.125010239
     0.249942888  0.124901392  0.625040317
     0.250029852  0.375013412  0.125025398
     0.249960977  0.374936028  0.625206811
     0.250021888  0.625052820  0.125252008
     0.250309334  0.624814680  0.624895438
     0.250004559  0.875028736  0.124944686
     0.250008853  0.874974359  0.624964828
     0.416680896  0.125025298  0.125048190
     0.416658264  0.125007806  0.625033748
     0.416719457  0.375056095  0.125435432
     0.416558856  0.374877018  0.625241243
     0.416786148  0.625095623  0.125292708
     0.417620823  0.624259097  0.624044111
     0.416665296  0.875126784  0.124836252
     0.416667818  0.875032703  0.624934919
     0.583350929  0.125031937  0.124998667
     0.583316045  0.125025561  0.624998981
     0.583385022  0.375025493  0.125193873
     0.583138460  0.375254284  0.624556519
     0.583347791  0.625139091  0.125011372
     0.582098179  0.624301545  0.623642541
     0.583358379  0.875141447  0.124791790
     0.583328528  0.875041884  0.624916639
     0.750052719  0.125011448  0.124931896
     0.750039663  0.124961406  0.624976121
     0.750242054  0.374920730  0.124509716
     0.749931307  0.374970235  0.624848749
     0.750055064  0.625052015  0.124923897
     0.749540608  0.624828331  0.624647085
     0.750028460  0.875047382  0.124889239
     0.749985252  0.874988861  0.624941318
     0.916729537  0.124968334  0.124912865
     0.916693381  0.124951600  0.624971627
     0.916792713  0.374986879  0.124817908
     0.916653916  0.374991331  0.624934066
     0.916697314  0.625000993  0.124946367
     0.916544801  0.624951876  0.624904553
     0.916690550  0.874976791  0.124935771
     0.916661184  0.874935419  0.624987171
     0.000027747  0.083266131  0.458319399
     0.000015278  0.083299944  0.958293081
     0.000064748  0.333293287  0.458333456
     0.000045496  0.333331318  0.958250115
     0.000047921  0.583316041  0.458327410
     0.999980036  0.583328937  0.958333284
     0.000019306  0.833276622  0.458337232
     0.999994045  0.833284630  0.958297671
     0.166591066  0.083207947  0.458338334
     0.166672974  0.083307669  0.958315481
     0.166642400  0.333259588  0.458481612
     0.166683351  0.333331018  0.958330359
     0.167014815  0.583249912  0.458402568
     0.166651594  0.583342549  0.958484616
     0.166691448  0.833310360  0.458317181
     0.166674518  0.833286349  0.958284908
     0.333301406  0.083318708  0.458356380
     0.333328644  0.083320585  0.958346630
     0.333043262  0.332425089  0.458855553
     0.333350121  0.333315669  0.958543042
     0.334726060  0.582818710  0.458246729
     0.333134750  0.583424168  0.958854414
     0.333222398  0.833623342  0.458258477
     0.333342285  0.833320715  0.958240916
     0.500005973  0.083349917  0.458371174
     0.499998248  0.083352736  0.958325881
     0.500132369  0.333718314  0.458501320
     0.499977673  0.333107751  0.958812574
     0.499974353  0.583317559  0.958448374
     0.500030301  0.833672355  0.458243908
     0.499996195  0.833381633  0.958131776
     0.666718656  0.083336594  0.458316211
     0.666677917  0.083338632  0.958283362
     0.667229810  0.332394080  0.458331928
     0.666646952  0.333328327  0.958278168
     0.665747829  0.582957241  0.457662587
     0.666679089  0.583364424  0.958343660
     0.666858511  0.833702666  0.458209487
     0.666652104  0.833327303  0.958175766
     0.833450394  0.083233339  0.458306136
     0.833355279  0.083313589  0.958267351
     0.833543824  0.333228195  0.458257276
     0.833397853  0.333307358  0.958088799
     0.833141860  0.583305434  0.458191640
     0.833275305  0.583310552  0.958199729
     0.833366404  0.833348205  0.458280005
     0.833314719  0.833288346  0.958227383
     0.083341695  0.208267436  0.458341395
     0.083370946  0.208322433  0.958301805
     0.083116897  0.458367805  0.458425004
     0.083363132  0.458348464  0.958386908
     0.083394201  0.708304416  0.458383827
     0.083358063  0.708291089  0.958304466
     0.083333365  0.958258991  0.458336265
     0.083347106  0.958290446  0.958316326
     0.249847523  0.207995072  0.458450450
     0.250009231  0.208321121  0.958404231
     0.249053996  0.458500416  0.458841879
     0.250045393  0.458354477  0.958618988
     0.250186073  0.708336910  0.458384055
     0.250056468  0.708286162  0.958311401
     0.249942961  0.958392130  0.458340796
     0.249997263  0.958317009  0.958334267
     0.416624726  0.208306782  0.458457967
     0.416653555  0.208291391  0.958482813
     0.416610382  0.458300095  0.958737347
     0.416329169  0.709267331  0.458146841
     0.416665163  0.708295187  0.958275734
     0.416640347  0.958446339  0.458309715
     0.416647970  0.958364036  0.958261103
     0.583371246  0.208306638  0.458384722
     0.583344254  0.208315826  0.958383731
     0.583305341  0.458323368  0.958476261
     0.583917345  0.709449930  0.457973005
     0.583316600  0.708300357  0.958158618
     0.583377355  0.958460298  0.458297460
     0.583342327  0.958371771  0.958241289
     0.750220412  0.208017441  0.458322961
     0.750018280  0.208331595  0.958285606
     0.751193386  0.458413522  0.458168965
[...]
 196       0.003    -0.000    -0.005       0.613
 197       0.004     0.002    -0.008       0.290
 198      -0.002     0.000     0.002       1.016
 199      -0.003    -0.000     0.003       0.690
 200       0.004    -0.003     0.005      -1.384
 201       0.004     0.003    -0.008       0.095
 202       0.018    -0.000     0.028      -0.648
 203       0.019    -0.013     0.028      -1.155
 204       0.004    -0.002    -0.010       0.674
 205       0.009    -0.009     0.012      -1.459
 206       0.002     0.001    -0.004       0.149
 207       0.002    -0.000    -0.006       0.314
 208      -0.005    -0.000    -0.016      -0.305
 209       0.005     0.002    -0.017       0.207
 210      -0.550    -0.547    -0.800      -0.004
 211       0.136     0.052     0.173      -0.487
 212       0.009    -0.009     0.015      -1.203
 213      -0.028     0.022     0.030       1.670
 214       0.004     0.001    -0.005       0.577
 215       0.005     0.004    -0.008       0.113
 216       0.004    -0.004    -0.013       0.611
 217      -0.010     0.010     0.014       1.462
 218       0.063     0.015     0.070      -0.676
 219       1.072     0.842     1.135      -0.202
 220      -0.006     0.002    -0.031      -0.259
 221       0.089     0.002     0.101      -0.862
 222       0.005     0.001    -0.006       0.694
 223       0.007     0.005    -0.009       0.203
 224      -0.004     0.002     0.005       1.070
 225       0.002     0.001    -0.016       0.037
 226      -0.025    -0.014    -0.054      -0.205
 227       0.089     0.001     0.101      -0.871
 228      -0.008     0.001     0.009       1.043
 229       0.056     0.018     0.064      -0.590
 230       0.003     0.001    -0.004       0.449
 231       0.004     0.003    -0.007       0.086
 232       0.002     0.001    -0.002       0.304
 233       0.004     0.001    -0.005       0.534
 234      -0.006    -0.001     0.008       0.709
 235      -0.014     0.011     0.016       1.595
 236      -0.015    -0.009    -0.022      -0.256
 237      -0.003    -0.001    -0.025      -0.082
 238       0.002     0.001    -0.002       0.412
 239       0.003     0.000    -0.004       0.715
 240       0.002     0.001    -0.002       0.442
 241       0.003     0.000    -0.004       0.614
 242       0.006     0.002    -0.007       0.636
 243      -0.008     0.006     0.009       1.600
 244      -0.007     0.001    -0.018      -0.421
 245       0.004    -0.001    -0.023       0.253
 246       0.002     0.001    -0.002       0.078
 247       0.004     0.001    -0.004       0.628
 248       0.002     0.000    -0.006       0.298
 249       0.002     0.002    -0.008       0.059
 250       0.019     0.001     0.025      -0.711
 251       0.020    -0.011     0.026      -1.186
 252       0.016    -0.013     0.023      -1.250
 253       0.087     0.057     0.112      -0.264
 254      -0.004     0.002     0.006       1.056
 255       0.002     0.001    -0.015       0.019
 256       0.005     0.001    -0.007       0.574
 257       0.006     0.004    -0.009       0.228
 258       0.016    -0.013     0.023      -1.313
 259       0.085     0.057     0.109      -0.258
 260       0.057     0.010     0.062      -0.764
 261       1.153     0.928     1.216      -0.185
 262      -0.007     0.000     0.007       1.010
 263       0.013     0.011    -0.013       0.147
 264       0.004     0.001    -0.005       0.598
 265       0.005     0.004    -0.008       0.155
 266       0.009    -0.009     0.015      -1.251
 267       0.028     0.019    -0.031       0.271
 268       0.018     0.008    -0.035       0.286
 269       0.411    -0.130     0.445      -1.217
 270      -0.006    -0.000     0.006       0.959
 271      -0.012     0.011     0.013       1.749
 272       0.002     0.001    -0.003       0.138
 273       0.002     0.000    -0.006       0.278
 274      -0.006     0.001     0.006       1.031
 275       0.012     0.011    -0.012       0.055
 276      -0.009    -0.001     0.010       0.792
 277       0.058     0.017     0.070      -0.587
 278       0.003     0.001    -0.003       0.739
 279       0.007    -0.005     0.007      -1.607
 280      -0.002     0.000     0.002       0.849
 281      -0.002    -0.000     0.003       0.641
 282       0.004     0.001    -0.004       0.802
 283       0.006     0.004    -0.007       0.229
 284       0.005    -0.002    -0.009       0.816
 285       0.009     0.004    -0.014       0.310
 286       0.001     0.000    -0.001       0.786
 287       0.003    -0.001    -0.005       0.766
 288       0.002     0.000    -0.002       0.802
 289       0.003    -0.000    -0.003       1.094
 290      -0.004    -0.001    -0.011      -0.245
 291      -0.005    -0.004    -0.014      -0.070
 292       0.006    -0.001    -0.008       0.910
 293       0.010    -0.009     0.015      -1.267
 294      -0.001     0.000    -0.004      -0.259
 295       0.004     0.001    -0.004       0.734
 296       0.002     0.001    -0.003       0.147
 297      -0.003     0.003     0.005       1.398
 298      -0.005    -0.001    -0.020      -0.225
 299      -0.006     0.001    -0.022      -0.303
 300       0.008     0.001    -0.013       0.550
 301       0.024    -0.008     0.043      -0.749
 302       0.002    -0.002     0.005      -0.831
 303       0.006     0.004    -0.009       0.143
 304       0.004     0.001    -0.005       0.572
 305       0.004     0.003    -0.009       0.095
 306       0.006     0.002    -0.013       0.300
 307       0.025    -0.006     0.041      -0.737
 308      -0.053    -0.048    -0.101      -0.050
 309       0.162    -0.049    -0.227       0.927
 310      -0.004     0.003    -0.009      -0.831
 311      -0.008    -0.007    -0.040      -0.026
 312       0.004     0.001    -0.006       0.578
 313       0.005     0.003    -0.009       0.185
 314      -0.050    -0.039    -0.061      -0.189
 315       0.030     0.000     0.052      -0.565
 316       0.011     0.006    -0.073       0.071
 317       0.007    -0.001    -0.008       1.139
 318      -0.063    -0.057    -0.118      -0.053
 319       0.003     0.001    -0.004       0.336
 320       0.003     0.002    -0.007       0.101
 321       0.004    -0.002    -0.007       0.861
 322      -0.008    -0.008    -0.039      -0.016
 323       0.011    -0.000    -0.024       0.461
 324      -0.295    -0.250    -0.464      -0.097
 325      -0.004    -0.001     0.005       0.480
 326       0.008     0.007    -0.018       0.059
 327       0.002     0.000    -0.002       0.519
 328       0.003    -0.000    -0.004       0.739
 329       0.003    -0.001    -0.004       0.981
 330      -0.001     0.000    -0.013      -0.064
 331      -0.006    -0.002     0.009       0.385
 332       0.013     0.010    -0.021       0.187
 333       0.001    -0.001    -0.003       0.560
 334       0.005     0.003    -0.007       0.252
 335       0.001     0.000    -0.004       0.097
 336       0.002    -0.000    -0.006       0.315
 337      -0.006     0.001    -0.021      -0.357
 338      -0.007     0.001    -0.025      -0.319
 339      -0.005     0.001     0.005       0.986
 340       0.006     0.003    -0.014       0.215
 341       0.001     0.000    -0.003       0.345
 342       0.003     0.000    -0.003       0.894
 343       0.004     0.001    -0.006       0.540
 344       0.009    -0.005     0.011      -1.291
 345      -0.157    -0.142    -0.260      -0.059
 346      -0.064    -0.004    -0.101      -0.592
 347      -0.050    -0.041    -0.061      -0.159
 348       0.040     0.013     0.063      -0.431
 349       0.003     0.001    -0.004       0.603
 350       0.003     0.002    -0.009       0.052
 351      -0.005     0.001     0.006       1.205
 352       0.008     0.005    -0.013       0.201
 353      -0.029    -0.026    -0.079      -0.044
 354       0.175    -0.032    -0.198       1.045
 355      -0.013    -0.005    -0.038      -0.195
 356      -0.560    -0.550    -0.810      -0.013
 357       0.005    -0.000    -0.006       0.875
 358       0.003     0.001    -0.016       0.120
 359      -0.004     0.002     0.007       0.838
 360       0.007     0.005    -0.011       0.139
 361      -0.018    -0.009    -0.043      -0.206
 362      -0.547    -0.536    -0.793      -0.014
 363       0.013     0.006    -0.021       0.357
 364      -0.325    -0.287    -0.496      -0.077
 365       0.004     0.000    -0.005       0.863
 366       0.001     0.000    -0.016       0.080
 367       0.001     0.001    -0.003       0.210
 368       0.002     0.000    -0.008       0.216
 369       0.006    -0.003    -0.010       0.904
 370      -0.068    -0.062    -0.122      -0.051
 371      -0.020    -0.011    -0.035      -0.279
 372      -0.055    -0.049    -0.093      -0.065
 373       0.002     0.001    -0.003       0.268
 374       0.004     0.002    -0.006       0.304
 375      -0.001     0.001    -0.002      -1.221
 376      -0.002     0.002    -0.003      -1.223
 377       0.005    -0.002    -0.007       1.018
 378      -0.003    -0.001    -0.020      -0.115
 379       0.004    -0.002    -0.006       0.822
 380       0.006     0.005    -0.011       0.156
 381       0.001    -0.000    -0.002       0.975
 382      -0.003    -0.001     0.003       0.648
 383       0.002    -0.001    -0.004       0.881
 384       0.001    -0.000    -0.002       0.920
 385      -0.004    -0.001    -0.022      -0.132
 386      -0.005     0.001    -0.009      -0.695
 387      -0.005    -0.004    -0.023      -0.056
 388      -0.005     0.000     0.007       0.761
 389      -0.003     0.001    -0.004      -1.019
 390       0.001    -0.001    -0.001       1.526
 391      -0.015    -0.012    -0.027      -0.123
 392       0.002     0.001    -0.003       0.419
 393      -0.103    -0.100    -0.191      -0.018
 394      -0.030    -0.017    -0.053      -0.239
 395      -0.017    -0.016    -0.060      -0.024
 396       0.006     0.001     0.016      -0.346
 397      -0.001     0.001    -0.010      -0.164
 398       0.002     0.001    -0.003       0.347
 399      -0.002    -0.001    -0.019      -0.045
 400      -0.004     0.000     0.005       0.983
 401      -1.781    -1.754    -2.544      -0.011
 402      -0.020    -0.012    -0.044      -0.180
 403      -0.611    -0.597    -0.854      -0.016
 404      -0.061    -0.051    -0.144      -0.070
 405       0.006     0.005    -0.011       0.128
 406      -0.005     0.001     0.005       1.068
 407       0.008     0.006    -0.010       0.175
 408       0.005     0.000    -0.006       0.841
 409      -0.570    -0.556    -0.813      -0.017
 410      -0.067    -0.058    -0.155      -0.060
 411      -0.070    -0.068    -0.161      -0.013
 412       0.007     0.004    -0.015       0.163
 413       0.005    -0.002    -0.008       0.829
 414       0.004     0.003    -0.008       0.092
 415       0.003     0.001    -0.004       0.477
 416       0.019     0.013    -0.035       0.181
 417       0.010     0.003    -0.010       0.694
 418      -0.037     0.032     0.042       1.645
 419      -0.162    -0.151    -0.261      -0.042
 420       0.006     0.005    -0.008       0.072
 421       0.004     0.001    -0.005       0.556
 422      -0.003     0.000     0.004       0.905
 423       0.002     0.000    -0.002       0.595
 424       0.004     0.001    -0.016       0.165
 425      -0.005     0.002    -0.009      -0.756
 426       0.009     0.006    -0.016       0.183
 427      -0.005     0.003    -0.014      -0.506
 428      -0.004     0.001     0.004       1.299
 429       0.001     0.001    -0.003       0.141
 430      -0.005    -0.004    -0.020      -0.063
 431      -0.003     0.000    -0.006      -0.496
 432      -0.094    -0.087    -0.175      -0.043
 433      -0.006    -0.003     0.008       0.421
 434      -0.006     0.006     0.007       1.604
 435       0.003    -0.000    -0.004       0.760
 436       0.002    -0.001    -0.005       0.650
 437       0.002     0.001    -0.002       0.361
 438      -0.124    -0.117    -0.197      -0.035
 439      -0.004    -0.002     0.005       0.260
 440      -1.703    -1.674    -2.451      -0.012
 441      -0.027    -0.017    -0.050      -0.198
 442      -0.008    -0.007    -0.038      -0.032
 443      -0.004     0.003    -0.010      -0.666
 444       0.003     0.002    -0.007       0.101
 445       0.003     0.001    -0.004       0.429
 446      -0.016    -0.014    -0.059      -0.039
 447       0.005    -0.000     0.014      -0.408
 448      -0.079    -0.076    -0.187      -0.013
 449       0.011     0.005    -0.042       0.147
 450       0.010     0.002    -0.011       0.696
 451       0.005     0.004    -0.009       0.154
 452       0.005     0.001    -0.006       0.644
 453      -0.003    -0.002    -0.034      -0.041
 454      -0.006     0.002    -0.012      -0.623
 455      -0.066    -0.061    -0.157      -0.027
 456       0.021     0.015    -0.027       0.218
 457      -0.010     0.001     0.010       1.056
 458       0.003     0.003    -0.009       0.084
 459       0.004     0.001    -0.005       0.530
 460       0.005     0.004    -0.009       0.136
 461       0.003     0.001    -0.004       0.718
 462       0.039    -0.010     0.049      -1.002
 463      -0.010     0.001     0.013       0.827
 464       0.009     0.008    -0.011       0.073
 465      -0.006    -0.003    -0.015      -0.254
 466       0.003     0.001    -0.005       0.417
 467       0.002     0.001    -0.003       0.130
 468      -0.002     0.002    -0.007      -0.562
 469      -0.002    -0.001    -0.005      -0.121
 470       0.008     0.004    -0.026       0.159
 471       0.007    -0.000    -0.007       1.032
 472       0.004     0.002    -0.006       0.324
 473       0.001    -0.001    -0.005       0.364
 474       0.003    -0.000    -0.003       1.156
 475       0.002     0.000    -0.002       0.790
 476      -0.002     0.000    -0.008      -0.294
 477      -0.001     0.001    -0.004      -0.423
 478       0.003    -0.003    -0.020       0.281
 479       0.006     0.000    -0.010       0.611
 480       0.005     0.002    -0.005       0.484
 481       0.005     0.002    -0.006       0.449
 482      -0.002    -0.000     0.002       0.852
 483      -0.002    -0.000     0.003       0.733
 484      -0.003    -0.002    -0.018      -0.054
 485       0.003     0.001    -0.006       0.314
 486      -0.086    -0.079    -0.168      -0.038
 487      -0.013    -0.005     0.016       0.473
 488      -0.020    -0.019    -0.036      -0.050
 489       0.007     0.003    -0.010       0.396
 490       0.003     0.002    -0.004       0.217
 491       0.002     0.001    -0.004       0.243
 492       0.006     0.004    -0.014       0.132
 493       0.006    -0.006     0.011      -1.098
 494      -2.178    -2.157    -3.091      -0.007
 495      -0.051     0.004    -0.102      -0.543
 496      -0.077    -0.071    -0.124      -0.052
 497      -0.026    -0.021    -0.064      -0.083
 498       0.004     0.002    -0.007       0.291
 499       0.004     0.002    -0.007       0.299
 500      -0.018    -0.014    -0.035      -0.104
 501       0.008     0.003    -0.012       0.440
 502      -0.397    -0.330    -0.531      -0.127
 503      -1.802    -1.777    -2.560      -0.010
 504       0.022    -0.022     0.029      -1.534
 505      -0.048    -0.025    -0.095      -0.236
 506       0.005     0.002    -0.008       0.392
 507       0.003     0.000    -0.011       0.287
 508       0.002     0.001    -0.011       0.066
 509       0.005     0.003    -0.008       0.194
 510       0.046    -0.001     0.055      -0.848
 511      -0.047    -0.023    -0.094      -0.257
 512       0.013     0.007    -0.014       0.429
 513      -0.007    -0.003    -0.046      -0.074
 514       0.003     0.002    -0.005       0.195
 515       0.003     0.002    -0.006       0.179
 516       0.002    -0.000    -0.004       0.603
 517       0.002     0.000    -0.005       0.277
 518       0.009     0.002    -0.012       0.627
 519      -0.005     0.002    -0.022      -0.309
 520      -0.006    -0.002    -0.014      -0.294
 521       0.007     0.004    -0.010       0.300
 522       0.002     0.000    -0.003       0.643
 523       0.002     0.000    -0.004       0.538
 524       0.002     0.000    -0.004       0.484
 525       0.002     0.001    -0.003       0.540
 526      -0.019    -0.017    -0.048      -0.056
 527      -0.016    -0.009    -0.025      -0.303
 528       0.007     0.004    -0.014       0.225
 529      -0.007     0.005     0.013       0.979
 530       0.003     0.001    -0.003       0.481
 531       0.003     0.001    -0.004       0.465
 532       0.004     0.003    -0.006       0.144
 533       0.004     0.002    -0.005       0.265
 534      -0.085    -0.081    -0.168      -0.024
 535      -0.010    -0.004     0.015       0.438
 536      -0.047    -0.032    -0.095      -0.153
 537       0.023    -0.005     0.043      -0.670
 538      -0.001     0.000    -0.013      -0.122
 539       0.005     0.003    -0.008       0.199
 540       0.006     0.003    -0.008       0.330
 541       0.005     0.002    -0.007       0.423
 542      -0.047    -0.029    -0.093      -0.184
 543       0.023    -0.006     0.041      -0.711
 544      -0.427    -0.370    -0.568      -0.100
 545      -1.764    -1.735    -2.499      -0.011
 546       0.007     0.003    -0.012       0.353
 547      -0.005     0.001    -0.023      -0.237
 548       0.005     0.003    -0.006       0.286
 549       0.004     0.002    -0.007       0.316
 550      -0.071    -0.064    -0.118      -0.058
 551      -0.028    -0.022    -0.065      -0.087
 552       0.057    -0.020     0.070      -1.096
 553      -2.276    -2.259    -3.154      -0.006
 554       0.006     0.002    -0.010       0.376
 555      -0.006    -0.001    -0.023      -0.222
 556       0.003     0.001    -0.004       0.356
 557       0.003     0.001    -0.004       0.292
 558       0.006     0.003    -0.011       0.339
 559      -0.007    -0.002    -0.023      -0.200
 560      -0.014     0.007     0.016       1.290
 561       0.014     0.006    -0.034       0.228
 562       0.003     0.002    -0.005       0.122
 563       0.002     0.002    -0.010       0.012
 564       0.002    -0.001    -0.003       1.201
 565      -0.002    -0.000     0.002       0.834
 566       0.002    -0.002    -0.010       0.400
 567      -0.006    -0.004    -0.013      -0.147
 568       0.008     0.002    -0.009       0.617
 569       0.005    -0.001    -0.014       0.405
 570      -0.002    -0.000     0.002       0.908
 571       0.003     0.000    -0.003       0.861
 572       0.623     0.554     0.752      -0.092
 573      -0.242    -0.037     0.399       0.512
 574     -14.748   -14.704   -25.654      -0.002
 575     -14.771   -14.731   -25.888      -0.002
 576       0.604     0.524     0.726      -0.110
 ---------------------------------------------------------------------



--------------------------------------------------------------------------------------------------------


     LOOP+:  cpu time 1128.7592: real time 1132.0360
    4ORBIT:  cpu time    0.0000: real time    0.0000

 total amount of memory used by VASP MPI-rank0   238699. kBytes
=======================================================================

   base      :      30000. kBytes
   nonlr-proj:       9222. kBytes
   fftplans  :      15014. kBytes
   grid      :      46644. kBytes
   one-center:        294. kBytes
   wavefun   :     137525. kBytes
 
  
  
 General timing and accounting informations for this job:
 ========================================================
  
                  Total CPU time used (sec):     1160.974
                            User time (sec):     1157.788
                          System time (sec):        3.185
                         Elapsed time (sec):     1165.010
  
                   Maximum memory used (kb):      431972.
                   Average memory used (kb):          N/A
  
                          Minor page faults:       629770
                          Major page faults:            1
                 Voluntary context switches:        12193
