 vasp.6.2.0 18Jan21 (build Apr 30 2021 19:00:08) gamma-only                     
  
 executed on             LinuxIFC date 2022.12.30  13:01:40
 running on   24 total cores
 distrk:  each k-point on   24 cores,    1 groups
 distr:  one band on NCORE=   6 cores,    4 groups


--------------------------------------------------------------------------------------------------------


 INCAR:
   SYSTEM = Diamond
   PREC = Normal
   ISTART = 0
   ICHARG = 11
   ISPIN = 2
   MAGMOM = 572*0.0 1*2.0 2*2.0 1*3
   NPAR = 4
   NELECT = 2303
   LHYPERFINE = T
   LEFG = T
   ENCUT = 700
   NELM = 1000
   NELMIN = 4
   EDIFF = 1E-06
   LREAL = Auto
   ALGO = Normal
   EDIFFG = -1E-02
   NSW = 0
   IBRION = 2
   ISIF = 2
   ISYM = 2
   POTIM = 0.5
   ISMEAR = 0
   SIGMA = 0.05
   NEDOS = 1000
   LWAVE = F
   LCHARG = F
   LVHAR = F
   LELF = F

 POTCAR:    PAW_PBE C 08Apr2002                   
 POTCAR:    PAW_PBE H 15Jun2001                   
 POTCAR:    PAW_PBE C 08Apr2002                   
 POTCAR:    PAW_PBE N 08Apr2002                   
 POTCAR:    PAW_PBE C 08Apr2002                   
   VRHFIN =C: s2p2                                                                                  
   LEXCH  = PE                                                                                      
   EATOM  =   147.1560 eV,   10.8157 Ry                                                             
                                                                                                    
   TITEL  = PAW_PBE C 08Apr2002                                                                     
   LULTRA =        F    use ultrasoft PP ?                                                          
   IUNSCR =        1    unscreen: 0-lin 1-nonlin 2-no                                               
   RPACOR =    1.200    partial core radius                                                         
   POMASS =   12.011; ZVAL   =    4.000    mass and valenz                                          
   RCORE  =    1.500    outmost cutoff radius                                                       
   RWIGS  =    1.630; RWIGS  =    0.863    wigner-seitz radius (au A)                               
   ENMAX  =  400.000; ENMIN  =  300.000 eV                                                          
   ICORE  =        2    local potential                                                             
   LCOR   =        T    correct aug charges                                                         
   LPAW   =        T    paw PP                                                                      
   EAUG   =  644.873                                                                                
   DEXC   =    0.000                                                                                
   RMAX   =    1.529    core radius for proj-oper                                                   
   RAUG   =    1.300    factor for augmentation sphere                                              
   RDEP   =    1.501    radius for radial grids                                                     
   RDEPT  =    1.300    core radius for aug-charge                                                  
                                                                                                    
   Atomic configuration                                                                             
    4 entries                                                                                       
     n  l   j            E        occ.                                                              
     1  0  0.50      -273.3789   2.0000                                                             
     2  0  0.50       -13.7508   2.0000                                                             
     2  1  0.50        -5.2854   2.0000                                                             
     3  2  1.50        -5.4423   0.0000                                                             
   Description                                                                                      
     l       E           TYP  RCUT    TYP  RCUT                                                     
     0    -13.7508458     23  1.200                                                                 
     0     -8.2022199     23  1.200                                                                 
     1     -5.2854383     23  1.500                                                                 
     1     34.0145650     23  1.500                                                                 
     2     -5.4423304      7  1.500                                                                 
  local pseudopotential read in
  partial core-charges read in
  partial kinetic energy density read in
  atomic valenz-charges read in
  non local Contribution for L=           0  read in
    real space projection operators read in
  non local Contribution for L=           0  read in
    real space projection operators read in
  non local Contribution for L=           1  read in
    real space projection operators read in
  non local Contribution for L=           1  read in
    real space projection operators read in
    PAW grid and wavefunctions read in
 
   number of l-projection  operators is LMAX  =           4
   number of lm-projection operators is LMMAX =           8
 
 POTCAR:    PAW_PBE H 15Jun2001                   
   VRHFIN =H: ultrasoft test                                                                        
   LEXCH  = PE                                                                                      
   EATOM  =    12.4884 eV,    0.9179 Ry                                                             
                                                                                                    
   TITEL  = PAW_PBE H 15Jun2001                                                                     
   LULTRA =        F    use ultrasoft PP ?                                                          
   IUNSCR =        0    unscreen: 0-lin 1-nonlin 2-no                                               
   RPACOR =    0.000    partial core radius                                                         
   POMASS =    1.000; ZVAL   =    1.000    mass and valenz                                          
   RCORE  =    1.100    outmost cutoff radius                                                       
   RWIGS  =    0.700; RWIGS  =    0.370    wigner-seitz radius (au A)                               
   ENMAX  =  250.000; ENMIN  =  200.000 eV                                                          
   RCLOC  =    0.701    cutoff for local pot                                                        
   LCOR   =        T    correct aug charges                                                         
   LPAW   =        T    paw PP                                                                      
   EAUG   =  400.000                                                                                
   RMAX   =    1.123    core radius for proj-oper                                                   
   RAUG   =    1.200    factor for augmentation sphere                                              
   RDEP   =    1.112    radius for radial grids                                                     
   RDEPT  =    0.926    core radius for aug-charge                                                  
                                                                                                    
   Atomic configuration                                                                             
    2 entries                                                                                       
     n  l   j            E        occ.                                                              
     1  0  0.50        -6.4927   1.0000                                                             
     2  1  0.50        -3.4015   0.0000                                                             
   Description                                                                                      
     l       E           TYP  RCUT    TYP  RCUT                                                     
     0     -6.4927494     23  1.100                                                                 
     0      6.8029130     23  1.100                                                                 
     1     -4.0817478     23  1.100                                                                 
  local pseudopotential read in
  atomic valenz-charges read in
  non local Contribution for L=           0  read in
    real space projection operators read in
  non local Contribution for L=           0  read in
    real space projection operators read in
  non local Contribution for L=           1  read in
    real space projection operators read in
    PAW grid and wavefunctions read in
 
   number of l-projection  operators is LMAX  =           3
   number of lm-projection operators is LMMAX =           5
 
 POTCAR:    PAW_PBE C 08Apr2002                   
   VRHFIN =C: s2p2                                                                                  
   LEXCH  = PE                                                                                      
   EATOM  =   147.1560 eV,   10.8157 Ry                                                             
                                                                                                    
   TITEL  = PAW_PBE C 08Apr2002                                                                     
   LULTRA =        F    use ultrasoft PP ?                                                          
   IUNSCR =        1    unscreen: 0-lin 1-nonlin 2-no                                               
   RPACOR =    1.200    partial core radius                                                         
   POMASS =   12.011; ZVAL   =    4.000    mass and valenz                                          
   RCORE  =    1.500    outmost cutoff radius                                                       
   RWIGS  =    1.630; RWIGS  =    0.863    wigner-seitz radius (au A)                               
   ENMAX  =  400.000; ENMIN  =  300.000 eV                                                          
   ICORE  =        2    local potential                                                             
   LCOR   =        T    correct aug charges                                                         
   LPAW   =        T    paw PP                                                                      
   EAUG   =  644.873                                                                                
   DEXC   =    0.000                                                                                
   RMAX   =    1.529    core radius for proj-oper                                                   
   RAUG   =    1.300    factor for augmentation sphere                                              
   RDEP   =    1.501    radius for radial grids                                                     
   RDEPT  =    1.300    core radius for aug-charge                                                  
                                                                                                    
   Atomic configuration                                                                             
    4 entries                                                                                       
     n  l   j            E        occ.                                                              
     1  0  0.50      -273.3789   2.0000                                                             
     2  0  0.50       -13.7508   2.0000                                                             
     2  1  0.50        -5.2854   2.0000                                                             
     3  2  1.50        -5.4423   0.0000                                                             
   Description                                                                                      
     l       E           TYP  RCUT    TYP  RCUT                                                     
     0    -13.7508458     23  1.200                                                                 
     0     -8.2022199     23  1.200                                                                 
     1     -5.2854383     23  1.500                                                                 
     1     34.0145650     23  1.500                                                                 
     2     -5.4423304      7  1.500                                                                 
  local pseudopotential read in
  partial core-charges read in
  partial kinetic energy density read in
  atomic valenz-charges read in
  non local Contribution for L=           0  read in
    real space projection operators read in
  non local Contribution for L=           0  read in
    real space projection operators read in
  non local Contribution for L=           1  read in
    real space projection operators read in
  non local Contribution for L=           1  read in
    real space projection operators read in
    PAW grid and wavefunctions read in
 
   number of l-projection  operators is LMAX  =           4
   number of lm-projection operators is LMMAX =           8
 
 POTCAR:    PAW_PBE N 08Apr2002                   
   VRHFIN =N: s2p3                                                                                  
   LEXCH  = PE                                                                                      
   EATOM  =   264.5486 eV,   19.4438 Ry                                                             
                                                                                                    
   TITEL  = PAW_PBE N 08Apr2002                                                                     
   LULTRA =        F    use ultrasoft PP ?                                                          
   IUNSCR =        1    unscreen: 0-lin 1-nonlin 2-no                                               
   RPACOR =    1.200    partial core radius                                                         
   POMASS =   14.001; ZVAL   =    5.000    mass and valenz                                          
   RCORE  =    1.500    outmost cutoff radius                                                       
   RWIGS  =    1.400; RWIGS  =    0.741    wigner-seitz radius (au A)                               
   ENMAX  =  400.000; ENMIN  =  300.000 eV                                                          
   ICORE  =        2    local potential                                                             
   LCOR   =        T    correct aug charges                                                         
   LPAW   =        T    paw PP                                                                      
   EAUG   =  627.112                                                                                
   DEXC   =    0.000                                                                                
   RMAX   =    1.529    core radius for proj-oper                                                   
   RAUG   =    1.300    factor for augmentation sphere                                              
   RDEP   =    1.514    radius for radial grids                                                     
   RDEPT  =    1.338    core radius for aug-charge                                                  
                                                                                                    
   Atomic configuration                                                                             
    4 entries                                                                                       
     n  l   j            E        occ.                                                              
     1  0  0.50      -384.7179   2.0000                                                             
     2  0  0.50       -18.5828   2.0000                                                             
     2  1  0.50        -7.0898   3.0000                                                             
     3  2  1.50        -6.8029   0.0000                                                             
   Description                                                                                      
     l       E           TYP  RCUT    TYP  RCUT                                                     
     0    -18.5828119     23  1.200                                                                 
     0    -13.5018863     23  1.200                                                                 
     1     -7.0897853     23  1.500                                                                 
     1      9.5240782     23  1.500                                                                 
     2     -6.8029130      7  1.500                                                                 
  local pseudopotential read in
  partial core-charges read in
  partial kinetic energy density read in
  atomic valenz-charges read in
  non local Contribution for L=           0  read in
    real space projection operators read in
  non local Contribution for L=           0  read in
    real space projection operators read in
  non local Contribution for L=           1  read in
    real space projection operators read in
  non local Contribution for L=           1  read in
    real space projection operators read in
    PAW grid and wavefunctions read in
 
   number of l-projection  operators is LMAX  =           4
   number of lm-projection operators is LMMAX =           8
 
 Optimization of the real space projectors (new method)

 maximal supplied QI-value         = 25.13
 optimisation between [QCUT,QGAM] = [ 13.32, 26.89] = [ 49.69,202.52] Ry 
 Optimized for a Real-space Cutoff    1.01 Angstroem

   l    n(q)    QCUT    max X(q) W(low)/X(q) W(high)/X(q)  e(spline) 
   0      8    13.321   115.676    0.29E-03    0.42E-03    0.11E-06
   0      8    13.321    87.132    0.29E-03    0.42E-03    0.11E-06
   1      8    13.321     4.429    0.39E-03    0.33E-03    0.98E-07
   1      8    13.321     2.733    0.30E-03    0.26E-03    0.97E-07
 Optimization of the real space projectors (new method)

 maximal supplied QI-value         = 34.20
 optimisation between [QCUT,QGAM] = [ 13.34, 27.02] = [ 49.83,204.46] Ry 
 Optimized for a Real-space Cutoff    0.93 Angstroem

   l    n(q)    QCUT    max X(q) W(low)/X(q) W(high)/X(q)  e(spline) 
   0      7    13.340    19.460    0.47E-03    0.72E-04    0.17E-06
   0      7    13.340    12.209    0.45E-03    0.63E-04    0.16E-06
   1      7    13.340     4.655    0.21E-03    0.61E-03    0.12E-06
 Optimization of the real space projectors (new method)

 maximal supplied QI-value         = 25.13
 optimisation between [QCUT,QGAM] = [ 13.32, 26.89] = [ 49.69,202.52] Ry 
 Optimized for a Real-space Cutoff    1.01 Angstroem

   l    n(q)    QCUT    max X(q) W(low)/X(q) W(high)/X(q)  e(spline) 
   0      8    13.321   115.676    0.29E-03    0.42E-03    0.11E-06
   0      8    13.321    87.132    0.29E-03    0.42E-03    0.11E-06
   1      8    13.321     4.429    0.39E-03    0.33E-03    0.98E-07
   1      8    13.321     2.733    0.30E-03    0.26E-03    0.97E-07
 Optimization of the real space projectors (new method)

 maximal supplied QI-value         = 25.13
 optimisation between [QCUT,QGAM] = [ 13.32, 26.89] = [ 49.69,202.52] Ry 
 Optimized for a Real-space Cutoff    1.01 Angstroem

   l    n(q)    QCUT    max X(q) W(low)/X(q) W(high)/X(q)  e(spline) 
   0      8    13.321    79.467    0.28E-03    0.38E-03    0.11E-06
   0      8    13.321    66.151    0.27E-03    0.38E-03    0.11E-06
   1      8    13.321    23.070    0.40E-03    0.78E-03    0.29E-06
   1      8    13.321    16.668    0.40E-03    0.79E-03    0.30E-06
  PAW_PBE C 08Apr2002                   :
 energy of atom  1       EATOM= -147.1560
 kinetic energy error for atom=    0.0032 (will be added to EATOM!!)
  PAW_PBE H 15Jun2001                   :
 energy of atom  2       EATOM=  -12.4884
 kinetic energy error for atom=    0.0002 (will be added to EATOM!!)
  PAW_PBE C 08Apr2002                   :
 energy of atom  3       EATOM= -147.1560
 kinetic energy error for atom=    0.0032 (will be added to EATOM!!)
  PAW_PBE N 08Apr2002                   :
 energy of atom  4       EATOM= -264.5486
 kinetic energy error for atom=    0.0061 (will be added to EATOM!!)
 
 
 POSCAR: Autosave
  positions in direct lattice
  velocities in cartesian coordinates
 exchange correlation table for  LEXCH =        8
   RHO(1)=    0.500       N(1)  =     2000
   RHO(2)=  100.500       N(2)  =     4000
 


--------------------------------------------------------------------------------------------------------


 ion  position               nearest neighbor table
   1  1.000  0.000  0.000- 285 1.55 435 1.55 381 1.55 475 1.55
   2  0.000  0.000  0.500- 286 1.55 434 1.55 380 1.55 474 1.55
   3  0.000  0.250  0.000- 287 1.55 429 1.55 383 1.55 469 1.55
   4  0.000  0.250  0.500- 288 1.55 428 1.55 382 1.55 468 1.55
   5  0.000  0.500  0.000- 289 1.55 471 1.55 431 1.55 385 1.55
   6  0.000  0.500  0.500- 384 1.55 290 1.55 430 1.55 470 1.55
   7  1.000  0.750  0.000- 433 1.55 291 1.55 473 1.55 387 1.55
   8  1.000  0.750  0.500- 432 1.55 292 1.55 386 1.55 472 1.55
   9  0.167  0.000  0.000- 293 1.55 435 1.55 443 1.55 389 1.55
  10  0.167  0.000  0.500- 294 1.55 434 1.55 388 1.55 442 1.55
  11  0.167  0.250  1.000- 429 1.55 295 1.55 437 1.55 391 1.55
  12  0.167  0.250  0.500- 296 1.55 436 1.55 390 1.55 428 1.55
  13  0.167  0.500  1.000- 431 1.55 297 1.55 393 1.55 439 1.55
  14  0.167  0.500  0.500- 298 1.55 430 1.55 392 1.55 438 1.55
  15  0.167  0.750  0.000- 441 1.55 299 1.55 395 1.55 433 1.55
  16  0.167  0.750  0.500- 394 1.55 432 1.55 300 1.55 440 1.55
  17  0.333  1.000  0.000- 301 1.55 397 1.55 451 1.55 443 1.55
  18  0.333  0.000  0.500- 302 1.55 442 1.55 450 1.55 396 1.55
  19  0.333  0.250  1.000- 303 1.55 437 1.55 445 1.55 399 1.55
  20  0.333  0.250  0.500- 304 1.55 444 1.55 436 1.55 398 1.55
  21  0.333  0.500  1.000- 305 1.55 439 1.55 401 1.55 447 1.55
  22  0.334  0.501  0.500- 400 1.54 446 1.55 438 1.55 306 1.56
  23  0.333  0.750  1.000- 307 1.55 403 1.55 441 1.55 449 1.55
  24  0.333  0.750  0.500- 308 1.55 402 1.55 440 1.55 448 1.55
  25  0.500  1.000  0.000- 309 1.55 405 1.55 451 1.55 459 1.55
  26  0.500  1.000  0.500- 310 1.55 450 1.55 458 1.55 404 1.55
  27  0.500  0.250  0.000- 407 1.54 311 1.54 445 1.55 453 1.55
  28  0.500  0.250  0.500- 312 1.55 444 1.55 452 1.55 406 1.55
  29  0.500  0.500  0.999- 409 1.54 447 1.54 313 1.55 455 1.55
  30  0.500  0.750  1.000- 314 1.55 411 1.55 449 1.55 457 1.55
  31  0.500  0.750  0.500- 315 1.54 448 1.55 456 1.55 410 1.55
  32  0.667  1.000  0.000- 413 1.55 316 1.55 467 1.55 459 1.55
  33  0.667  1.000  0.500- 317 1.55 466 1.55 458 1.55 412 1.55
  34  0.667  0.250  0.000- 318 1.55 415 1.55 453 1.55 461 1.55
  35  0.667  0.250  0.500- 460 1.55 452 1.55 319 1.55 414 1.55
  36  0.667  0.500  1.000- 320 1.54 463 1.55 417 1.55 455 1.55
  37  0.666  0.500  0.500- 416 1.54 462 1.55 454 1.55 321 1.55
  38  0.667  0.750  1.000- 322 1.55 419 1.55 465 1.55 457 1.55
  39  0.667  0.750  0.500- 323 1.55 464 1.55 418 1.55 456 1.55
  40  0.833  1.000  0.000- 475 1.55 324 1.55 421 1.55 467 1.55
  41  0.833  1.000  0.500- 474 1.55 325 1.55 420 1.55 466 1.55
  42  0.833  0.250  1.000- 469 1.55 326 1.55 423 1.55 461 1.55
  43  0.833  0.250  0.500- 468 1.55 327 1.55 422 1.55 460 1.55
  44  0.833  0.500  0.000- 328 1.55 471 1.55 463 1.55 425 1.55
  45  0.833  0.500  0.500- 470 1.55 424 1.55 329 1.55 462 1.55
  46  0.833  0.750  0.000- 473 1.55 330 1.55 465 1.55 427 1.55
  47  0.833  0.750  0.500- 331 1.55 472 1.55 426 1.55 464 1.55
  48  0.083  0.125  1.000- 332 1.55 429 1.55 389 1.55 381 1.55
  49  0.083  0.125  0.500- 333 1.55 388 1.55 428 1.55 380 1.55
  50  0.083  0.375  1.000- 383 1.55 334 1.55 431 1.55 391 1.55
  51  0.083  0.375  0.500- 335 1.55 430 1.55 390 1.55 382 1.55
  52  0.083  0.625  0.000- 393 1.54 336 1.55 385 1.55 433 1.55
  53  0.083  0.625  0.500- 384 1.55 432 1.55 337 1.55 392 1.55
  54  0.083  0.875  0.000- 395 1.55 338 1.55 435 1.55 387 1.55
  55  0.083  0.875  0.500- 434 1.55 339 1.55 394 1.55 386 1.55
  56  0.250  0.125  1.000- 340 1.55 389 1.55 397 1.55 437 1.55
  57  0.250  0.125  0.500- 341 1.55 396 1.55 388 1.55 436 1.55
  58  0.250  0.375  1.000- 342 1.54 391 1.55 439 1.55 399 1.55
  59  0.250  0.375  0.500- 343 1.54 438 1.55 398 1.55 390 1.55
  60  0.250  0.625  0.000- 401 1.54 344 1.54 393 1.55 441 1.55
  61  0.250  0.625  0.500- 440 1.55 392 1.55 345 1.55 400 1.55
  62  0.250  0.875  0.000- 346 1.55 443 1.55 403 1.55 395 1.55
  63  0.250  0.875  0.500- 442 1.55 347 1.55 394 1.55 402 1.55
  64  0.417  0.125  0.000- 445 1.55 348 1.55 397 1.55 405 1.55
  65  0.417  0.125  0.500- 349 1.55 396 1.55 404 1.55 444 1.55
  66  0.417  0.375  0.999- 399 1.55 350 1.55 407 1.55 447 1.55
  67  0.417  0.376  0.500- 406 1.54 446 1.55 398 1.55 351 1.55
  68  0.417  0.625  1.000- 352 1.55 449 1.55 401 1.55 409 1.55
  69  0.416  0.624  0.500- 400 1.54 408 1.55 448 1.55 353 1.56
  70  0.417  0.875  1.000- 451 1.55 354 1.55 411 1.55 403 1.55
  71  0.417  0.875  0.500- 355 1.55 402 1.55 410 1.55 450 1.55
  72  0.583  0.125  0.000- 453 1.55 356 1.55 405 1.55 413 1.55
  73  0.583  0.125  0.500- 357 1.55 404 1.55 412 1.55 452 1.55
  74  0.583  0.375  1.000- 358 1.54 415 1.55 407 1.55 455 1.55
  75  0.583  0.375  0.500- 406 1.54 414 1.55 454 1.55 359 1.55
  76  0.583  0.625  0.999- 457 1.55 360 1.55 417 1.55 409 1.55
  77  0.583  0.624  0.500- 416 1.54 408 1.55 456 1.55 361 1.55
  78  0.583  0.875  1.000- 459 1.55 362 1.55 411 1.55 419 1.55
  79  0.583  0.875  0.500- 363 1.55 410 1.55 418 1.55 458 1.55
  80  0.750  0.125  0.000- 364 1.55 461 1.55 421 1.55 413 1.55
  81  0.750  0.125  0.500- 420 1.55 365 1.55 412 1.55 460 1.55
  82  0.750  0.375  1.000- 366 1.54 423 1.55 463 1.55 415 1.55
  83  0.750  0.375  0.500- 414 1.55 462 1.55 367 1.55 422 1.55
  84  0.750  0.625  0.000- 417 1.54 368 1.54 465 1.55 425 1.55
  85  0.750  0.625  0.500- 369 1.55 464 1.55 424 1.55 416 1.55
  86  0.750  0.875  1.000- 467 1.55 370 1.55 427 1.55 419 1.55
  87  0.750  0.875  0.500- 371 1.55 426 1.55 466 1.55 418 1.55
  88  0.917  0.125  0.000- 381 1.55 372 1.55 469 1.55 421 1.55
  89  0.917  0.125  0.500- 380 1.55 373 1.55 468 1.55 420 1.55
  90  0.917  0.375  1.000- 374 1.55 383 1.55 471 1.55 423 1.55
  91  0.917  0.375  0.500- 375 1.55 382 1.55 470 1.55 422 1.55
  92  0.917  0.625  0.000- 425 1.55 385 1.55 376 1.55 473 1.55
  93  0.917  0.625  0.500- 384 1.55 377 1.55 472 1.55 424 1.55
  94  0.917  0.875  0.000- 387 1.55 378 1.55 475 1.55 427 1.55
  95  0.917  0.875  0.500- 386 1.55 379 1.55 474 1.55 426 1.55
  96  0.000  0.083  0.333- 380 1.55 476 1.55 524 1.55 564 1.55
  97  0.000  0.083  0.833- 525 1.55 477 1.55 381 1.55 565 1.55
  98  0.000  0.333  0.333- 382 1.55 478 1.55 526 1.55 566 1.55
  99  0.000  0.333  0.833- 383 1.55 527 1.55 479 1.55 567 1.55
 100  1.000  0.583  0.333- 384 1.55 568 1.55 480 1.55 528 1.55
 101  1.000  0.583  0.833- 529 1.54 569 1.55 385 1.55 481 1.55
 102  1.000  0.833  0.333- 386 1.55 482 1.55 530 1.55 570 1.55
 103  1.000  0.833  0.833- 531 1.55 483 1.55 387 1.55 571 1.55
 104  0.167  0.083  0.333- 388 1.55 484 1.55 532 1.55 524 1.55
 105  0.167  0.083  0.833- 389 1.55 533 1.55 525 1.55 485 1.55
 106  0.167  0.333  0.333- 486 1.55 534 1.55 390 1.55 526 1.55
 107  0.167  0.333  0.833- 391 1.55 527 1.55 535 1.55 487 1.55
 108  0.167  0.583  0.333- 528 1.55 392 1.55 488 1.55 536 1.55
 109  0.166  0.583  0.834- 537 1.54 529 1.55 393 1.55 489 1.55
 110  0.167  0.833  0.333- 394 1.55 490 1.55 530 1.55 538 1.55
 111  0.167  0.833  0.833- 539 1.54 491 1.55 395 1.55 531 1.55
 112  0.333  0.083  0.333- 396 1.55 540 1.55 532 1.55 492 1.55
 113  0.333  0.083  0.833- 397 1.55 533 1.55 493 1.55 541 1.55
 114  0.333  0.333  0.333- 542 1.55 534 1.55 494 1.55 398 1.55
 115  0.333  0.333  0.833- 399 1.54 535 1.55 543 1.55 495 1.55
 116  0.333  0.583  0.333- 496 1.54 536 1.54 544 1.55 400 1.55
 117  0.333  0.584  0.834- 401 1.54 545 1.55 537 1.55 497 1.55
 118  0.333  0.833  0.333- 402 1.55 546 1.55 498 1.55 538 1.55
 119  0.333  0.833  0.833- 499 1.55 403 1.55 539 1.55 547 1.55
 120  0.500  0.083  0.333- 404 1.55 500 1.55 540 1.55 548 1.55
 121  0.500  0.083  0.833- 405 1.55 541 1.55 501 1.55 549 1.55
 122  0.500  0.333  0.333- 542 1.55 550 1.55 502 1.55 406 1.55
 123  0.500  0.333  0.835- 407 1.54 543 1.55 551 1.55 503 1.55
 124  0.500  0.584  0.332- 504 1.54 408 1.54 544 1.55 552 1.55
 125  0.500  0.583  0.831- 505 1.54 553 1.55 409 1.56 545 1.56
 126  0.500  0.833  0.333- 546 1.55 410 1.55 554 1.55 506 1.55
 127  0.500  0.833  0.833- 411 1.55 507 1.55 547 1.55 555 1.55
 128  0.667  0.083  0.333- 412 1.55 556 1.55 548 1.55 508 1.55
 129  0.667  0.083  0.833- 509 1.55 413 1.55 557 1.55 549 1.55
 130  0.667  0.333  0.333- 558 1.55 550 1.55 510 1.55 414 1.55
 131  0.667  0.333  0.833- 415 1.54 559 1.55 551 1.55 511 1.55
 132  0.667  0.583  0.333- 512 1.55 560 1.55 552 1.55 416 1.55
 133  0.667  0.583  0.835- 417 1.54 513 1.55 561 1.55 553 1.55
 134  0.667  0.833  0.333- 554 1.55 418 1.55 562 1.55 514 1.55
 135  0.667  0.833  0.833- 515 1.55 419 1.55 563 1.55 555 1.55
 136  0.833  0.083  0.333- 420 1.55 564 1.55 516 1.55 556 1.55
 137  0.833  0.083  0.833- 565 1.55 517 1.55 421 1.55 557 1.55
 138  0.833  0.333  0.333- 422 1.55 566 1.55 518 1.55 558 1.55
 139  0.833  0.333  0.833- 567 1.55 423 1.55 519 1.55 559 1.55
 140  0.833  0.583  0.333- 424 1.55 568 1.55 560 1.55 520 1.55
 141  0.833  0.583  0.833- 561 1.55 569 1.55 425 1.55 521 1.55
 142  0.833  0.833  0.333- 426 1.55 570 1.55 522 1.55 562 1.55
 143  0.833  0.833  0.833- 571 1.55 523 1.55 427 1.55 563 1.55
 144  0.083  0.208  0.333- 428 1.55 484 1.55 526 1.55 476 1.55
 145  0.083  0.208  0.833- 485 1.55 429 1.55 527 1.55 477 1.55
 146  0.083  0.458  0.333- 430 1.55 486 1.55 528 1.55 478 1.55
 147  0.083  0.458  0.833- 431 1.55 479 1.55 487 1.55 529 1.55
 148  0.083  0.708  0.333- 432 1.55 488 1.55 530 1.55 480 1.55
 149  0.083  0.708  0.833- 489 1.54 433 1.55 531 1.55 481 1.55
 150  0.083  0.958  0.333- 434 1.55 490 1.55 524 1.55 482 1.55
 151  0.083  0.958  0.833- 491 1.55 435 1.55 525 1.55 483 1.55
 152  0.250  0.208  0.333- 436 1.55 492 1.55 534 1.55 484 1.55
 153  0.250  0.208  0.833- 437 1.55 485 1.55 493 1.55 535 1.55
 154  0.250  0.458  0.333- 536 1.55 486 1.55 494 1.55 438 1.55
 155  0.250  0.458  0.833- 439 1.54 487 1.55 537 1.55 495 1.55
 156  0.250  0.708  0.333- 538 1.55 440 1.55 488 1.55 496 1.55
 157  0.250  0.709  0.833- 497 1.54 441 1.55 539 1.55 489 1.55
 158  0.250  0.958  0.333- 442 1.55 490 1.55 498 1.55 532 1.55
 159  0.250  0.958  0.833- 443 1.55 533 1.55 491 1.55 499 1.55
 160  0.417  0.208  0.333- 492 1.55 444 1.55 500 1.55 542 1.55
 161  0.417  0.208  0.833- 493 1.55 445 1.55 543 1.55 501 1.55
 162  0.416  0.458  0.332- 494 1.54 446 1.54 544 1.55 502 1.55
 163  0.417  0.459  0.831- 495 1.54 503 1.55 447 1.56 545 1.56
 164  0.417  0.708  0.333- 496 1.55 546 1.55 504 1.55 448 1.55
 165  0.417  0.708  0.833- 449 1.54 547 1.55 497 1.55 505 1.55
 166  0.417  0.958  0.333- 450 1.55 498 1.55 540 1.55 506 1.55
 167  0.417  0.958  0.833- 499 1.55 451 1.55 541 1.55 507 1.55
 168  0.583  0.208  0.333- 452 1.55 508 1.55 550 1.55 500 1.55
 169  0.583  0.208  0.833- 551 1.55 453 1.55 509 1.55 501 1.55
 170  0.584  0.458  0.332- 454 1.54 510 1.54 552 1.55 502 1.55
 171  0.583  0.458  0.833- 455 1.54 511 1.55 503 1.55 553 1.55
 172  0.583  0.708  0.333- 512 1.55 554 1.55 504 1.55 456 1.55
 173  0.583  0.708  0.833- 457 1.54 555 1.55 513 1.55 505 1.55
 174  0.583  0.958  0.333- 458 1.55 514 1.55 506 1.55 548 1.55
 175  0.583  0.958  0.833- 549 1.55 459 1.55 515 1.55 507 1.55
 176  0.750  0.208  0.333- 460 1.55 516 1.55 558 1.55 508 1.55
 177  0.750  0.208  0.833- 517 1.55 461 1.55 559 1.55 509 1.55
 178  0.750  0.458  0.333- 518 1.55 560 1.55 510 1.55 462 1.55
 179  0.750  0.458  0.833- 463 1.54 519 1.55 561 1.55 511 1.55
 180  0.750  0.708  0.333- 520 1.55 464 1.55 562 1.55 512 1.55
 181  0.750  0.708  0.833- 521 1.55 563 1.55 465 1.55 513 1.55
 182  0.750  0.958  0.333- 466 1.55 522 1.55 514 1.55 556 1.55
 183  0.750  0.958  0.833- 557 1.55 523 1.55 467 1.55 515 1.55
 184  0.917  0.208  0.333- 468 1.55 476 1.55 566 1.55 516 1.55
 185  0.917  0.208  0.833- 477 1.55 469 1.55 567 1.55 517 1.55
 186  0.917  0.458  0.333- 470 1.55 518 1.55 478 1.55 568 1.55
 187  0.917  0.458  0.833- 519 1.55 471 1.55 479 1.55 569 1.55
 188  0.917  0.708  0.333- 472 1.55 520 1.55 480 1.55 570 1.55
 189  0.917  0.708  0.833- 481 1.55 473 1.55 571 1.55 521 1.55
 190  0.917  0.958  0.333- 474 1.55 482 1.55 564 1.55 522 1.55
 191  0.917  0.958  0.833- 483 1.55 565 1.55 475 1.55 523 1.55
 192  0.000  0.167  0.167- 476 1.55 332 1.55 287 1.55 372 1.55
 193  0.000  0.167  0.667- 333 1.55 477 1.55 288 1.55 373 1.55
 194  0.000  0.417  0.167- 478 1.55 334 1.55 374 1.55 289 1.55
 195  0.000  0.417  0.667- 479 1.55 375 1.55 335 1.55 290 1.55
 196  1.000  0.667  0.167- 480 1.55 336 1.55 376 1.55 291 1.55
 197  1.000  0.667  0.667- 337 1.54 377 1.55 292 1.55 481 1.55
 198  1.000  0.917  0.167- 338 1.55 482 1.55 285 1.55 378 1.55
 199  1.000  0.917  0.667- 339 1.55 286 1.55 483 1.55 379 1.55
 200  0.167  0.167  0.167- 484 1.55 295 1.55 340 1.55 332 1.55
 201  0.167  0.167  0.667- 485 1.55 341 1.55 333 1.55 296 1.55
 202  0.167  0.417  0.167- 297 1.55 334 1.55 342 1.55 486 1.55
 203  0.167  0.417  0.667- 487 1.55 298 1.55 335 1.55 343 1.55
 204  0.167  0.667  0.167- 488 1.55 344 1.55 336 1.55 299 1.55
 205  0.166  0.667  0.667- 345 1.54 337 1.55 300 1.55 489 1.55
 206  0.167  0.917  0.167- 490 1.55 293 1.55 346 1.55 338 1.55
 207  0.167  0.917  0.667- 347 1.55 294 1.55 491 1.55 339 1.55
 208  0.333  0.167  0.167- 492 1.55 340 1.55 348 1.55 303 1.55
 209  0.333  0.167  0.667- 341 1.55 493 1.55 304 1.55 349 1.55
 210  0.333  0.417  0.166- 494 1.54 342 1.54 305 1.55 350 1.55
 211  0.335  0.418  0.667- 495 1.54 351 1.55 306 1.56 343 1.56
 212  0.333  0.667  0.167- 307 1.55 344 1.55 496 1.55 352 1.55
 213  0.332  0.668  0.667- 308 1.54 353 1.54 345 1.55 497 1.55
 214  0.333  0.917  0.167- 498 1.55 301 1.55 346 1.55 354 1.55
 215  0.333  0.917  0.667- 499 1.55 302 1.55 347 1.55 355 1.55
 216  0.500  0.167  0.167- 311 1.55 500 1.55 348 1.55 356 1.55
 217  0.500  0.167  0.667- 349 1.55 501 1.55 312 1.55 357 1.55
 218  0.500  0.417  0.166- 502 1.54 350 1.55 358 1.55 313 1.55
 219  0.500  0.667  0.166- 504 1.54 314 1.54 352 1.55 360 1.55
 220  0.500  0.665  0.667- 505 1.54 361 1.55 353 1.56 315 1.56
 221  0.500  0.917  0.167- 354 1.55 506 1.55 362 1.55 309 1.55
 222  0.500  0.917  0.667- 507 1.55 355 1.55 363 1.55 310 1.55
 223  0.667  0.167  0.167- 508 1.55 318 1.55 364 1.55 356 1.55
 224  0.667  0.166  0.667- 319 1.54 365 1.54 509 1.55 357 1.55
 225  0.667  0.417  0.166- 510 1.54 366 1.54 320 1.55 358 1.55
 226  0.667  0.417  0.667- 367 1.54 511 1.54 321 1.55 359 1.55
 227  0.667  0.667  0.167- 322 1.55 368 1.55 512 1.55 360 1.55
 228  0.667  0.667  0.667- 323 1.54 513 1.55 369 1.55 361 1.57
 229  0.667  0.917  0.167- 316 1.55 514 1.55 370 1.55 362 1.55
 230  0.667  0.916  0.667- 515 1.55 371 1.55 317 1.55 363 1.55
 231  0.833  0.167  0.167- 516 1.55 372 1.55 326 1.55 364 1.55
 232  0.833  0.167  0.667- 373 1.55 517 1.55 327 1.55 365 1.55
 233  0.833  0.417  0.167- 374 1.55 518 1.55 328 1.55 366 1.55
 234  0.834  0.417  0.667- 375 1.54 519 1.55 329 1.55 367 1.55
 235  0.833  0.667  0.167- 520 1.55 368 1.55 376 1.55 330 1.55
 236  0.833  0.667  0.667- 377 1.55 331 1.55 521 1.55 369 1.55
 237  0.833  0.917  0.167- 522 1.55 324 1.55 378 1.55 370 1.55
 238  0.833  0.917  0.667- 325 1.55 379 1.55 523 1.55 371 1.55
 239  0.083  0.042  0.167- 524 1.55 293 1.55 332 1.55 285 1.55
 240  0.083  0.042  0.667- 294 1.55 525 1.55 333 1.55 286 1.55
 241  0.083  0.292  0.167- 295 1.55 334 1.55 526 1.55 287 1.55
 242  0.083  0.292  0.667- 296 1.55 527 1.55 335 1.55 288 1.55
 243  0.083  0.542  0.167- 528 1.55 289 1.55 297 1.55 336 1.55
 244  0.083  0.542  0.667- 298 1.54 290 1.54 529 1.55 337 1.55
 245  0.083  0.792  0.167- 299 1.55 530 1.55 338 1.55 291 1.55
 246  0.083  0.792  0.667- 300 1.54 339 1.55 292 1.55 531 1.55
 247  0.250  0.042  0.167- 532 1.55 293 1.55 301 1.55 340 1.55
 248  0.250  0.042  0.667- 341 1.55 294 1.55 533 1.55 302 1.55
 249  0.250  0.292  0.167- 295 1.55 303 1.55 342 1.55 534 1.55
 250  0.250  0.292  0.667- 535 1.54 304 1.55 296 1.55 343 1.55
 251  0.250  0.542  0.167- 297 1.55 344 1.55 536 1.55 305 1.55
 252  0.249  0.542  0.667- 298 1.54 306 1.54 345 1.55 537 1.55
 253  0.250  0.792  0.167- 538 1.55 346 1.55 299 1.55 307 1.55
 254  0.250  0.792  0.667- 308 1.54 347 1.54 539 1.55 300 1.55
 255  0.417  0.042  0.167- 540 1.55 301 1.55 348 1.55 309 1.55
 256  0.417  0.042  0.667- 302 1.55 541 1.55 349 1.55 310 1.55
 257  0.417  0.292  0.166- 303 1.55 311 1.55 542 1.55 350 1.55
 258  0.417  0.292  0.666- 304 1.54 543 1.55 312 1.55 351 1.57
 259  0.417  0.542  0.166- 544 1.54 305 1.55 352 1.55 313 1.55
 260  0.417  0.792  0.167- 307 1.55 354 1.55 314 1.55 546 1.55
 261  0.417  0.792  0.667- 547 1.55 308 1.55 355 1.55 315 1.55
 262  0.583  0.042  0.167- 548 1.55 356 1.55 316 1.55 309 1.55
 263  0.583  0.042  0.667- 357 1.55 317 1.55 549 1.55 310 1.55
 264  0.583  0.292  0.167- 550 1.55 318 1.55 358 1.55 311 1.55
 265  0.584  0.291  0.667- 319 1.54 312 1.55 551 1.55 359 1.55
 266  0.583  0.542  0.166- 552 1.54 360 1.55 320 1.55 313 1.55
 267  0.583  0.792  0.167- 362 1.55 322 1.55 314 1.55 554 1.55
 268  0.583  0.791  0.667- 555 1.55 323 1.55 363 1.55 315 1.55
 269  0.750  0.042  0.167- 556 1.55 364 1.55 324 1.55 316 1.55
 270  0.750  0.041  0.667- 365 1.54 325 1.55 557 1.55 317 1.55
 271  0.750  0.292  0.167- 326 1.55 558 1.55 366 1.55 318 1.55
 272  0.750  0.291  0.667- 327 1.54 559 1.55 319 1.55 367 1.55
 273  0.750  0.542  0.167- 560 1.55 328 1.55 368 1.55 320 1.55
 274  0.751  0.541  0.667- 329 1.54 369 1.55 561 1.55 321 1.55
 275  0.750  0.792  0.167- 562 1.55 330 1.55 370 1.55 322 1.55
 276  0.750  0.792  0.667- 371 1.55 323 1.55 563 1.55 331 1.55
 277  0.917  0.042  0.167- 564 1.55 372 1.55 285 1.55 324 1.55
 278  0.917  0.042  0.667- 286 1.55 373 1.55 565 1.55 325 1.55
 279  0.917  0.292  0.167- 566 1.55 374 1.55 287 1.55 326 1.55
 280  0.917  0.292  0.667- 288 1.55 567 1.55 375 1.55 327 1.55
 281  0.917  0.542  0.167- 568 1.55 328 1.55 289 1.55 376 1.55
 282  0.917  0.542  0.667- 329 1.54 290 1.54 569 1.55 377 1.55
 283  0.917  0.792  0.167- 570 1.55 330 1.55 291 1.55 378 1.55
 284  0.917  0.792  0.667- 292 1.55 379 1.55 571 1.55 331 1.55
 285  0.000  0.000  0.125-   1 1.55 277 1.55 198 1.55 239 1.55
 286  0.000  0.000  0.625- 278 1.55   2 1.55 199 1.55 240 1.55
 287  0.000  0.250  0.125-   3 1.55 192 1.55 279 1.55 241 1.55
 288  0.000  0.250  0.625- 280 1.55   4 1.55 193 1.55 242 1.55
 289  0.000  0.500  0.125-   5 1.55 243 1.55 194 1.55 281 1.55
 290  0.000  0.500  0.625- 244 1.54 282 1.54   6 1.55 195 1.55
 291  1.000  0.750  0.125-   7 1.55 283 1.55 245 1.55 196 1.55
 292  1.000  0.750  0.625- 284 1.55   8 1.55 197 1.55 246 1.55
 293  0.167  0.000  0.125-   9 1.55 239 1.55 206 1.55 247 1.55
 294  0.167  0.000  0.625- 207 1.55 240 1.55  10 1.55 248 1.55
 295  0.167  0.250  0.125- 241 1.55 249 1.55  11 1.55 200 1.55
 296  0.167  0.250  0.625-  12 1.55 242 1.55 201 1.55 250 1.55
 297  0.167  0.500  0.125-  13 1.55 251 1.55 243 1.55 202 1.55
 298  0.166  0.500  0.625- 252 1.54 244 1.54  14 1.55 203 1.55
 299  0.167  0.750  0.125-  15 1.55 245 1.55 253 1.55 204 1.55
 300  0.166  0.750  0.625- 246 1.54 205 1.55  16 1.55 254 1.55
 301  0.333  1.000  0.125-  17 1.55 255 1.55 214 1.55 247 1.55
 302  0.333  1.000  0.625-  18 1.55 256 1.55 215 1.55 248 1.55
 303  0.333  0.250  0.125- 257 1.55  19 1.55 249 1.55 208 1.55
 304  0.334  0.250  0.625- 258 1.54  20 1.55 209 1.55 250 1.55
 305  0.333  0.500  0.125-  21 1.55 259 1.55 210 1.55 251 1.55
 306  0.333  0.502  0.627- 576 1.48 252 1.54 211 1.56  22 1.56
 307  0.333  0.750  0.125-  23 1.55 212 1.55 260 1.55 253 1.55
 308  0.333  0.750  0.625- 213 1.54 254 1.54  24 1.55 261 1.55
 309  0.500  1.000  0.125-  25 1.55 221 1.55 262 1.55 255 1.55
 310  0.500  1.000  0.625-  26 1.55 263 1.55 222 1.55 256 1.55
 311  0.500  0.250  0.125-  27 1.54 216 1.55 257 1.55 264 1.55
 312  0.500  0.250  0.625-  28 1.55 217 1.55 265 1.55 258 1.55
 313  0.500  0.500  0.124-  29 1.55 218 1.55 266 1.55 259 1.55
 314  0.500  0.750  0.125- 219 1.54  30 1.55 267 1.55 260 1.55
 315  0.500  0.749  0.625-  31 1.54 261 1.55 268 1.55 220 1.56
 316  0.667  1.000  0.125-  32 1.55 229 1.55 262 1.55 269 1.55
 317  0.667  1.000  0.625-  33 1.55 263 1.55 230 1.55 270 1.55
 318  0.667  0.250  0.125-  34 1.55 264 1.55 223 1.55 271 1.55
 319  0.667  0.249  0.625- 265 1.54 224 1.54  35 1.55 272 1.55
 320  0.667  0.500  0.125-  36 1.54 266 1.55 273 1.55 225 1.55
 321  0.667  0.500  0.626- 575 1.49 226 1.55 274 1.55  37 1.55
 322  0.667  0.750  0.125-  38 1.55 227 1.55 267 1.55 275 1.55
 323  0.667  0.750  0.625- 228 1.54  39 1.55 268 1.55 276 1.55
 324  0.833  1.000  0.125-  40 1.55 237 1.55 269 1.55 277 1.55
 325  0.833  1.000  0.625- 270 1.55 238 1.55  41 1.55 278 1.55
 326  0.833  0.250  0.125-  42 1.55 271 1.55 231 1.55 279 1.55
 327  0.833  0.250  0.625- 272 1.54  43 1.55 232 1.55 280 1.55
 328  0.833  0.500  0.125-  44 1.55 281 1.55 273 1.55 233 1.55
 329  0.834  0.500  0.625- 274 1.54 282 1.54  45 1.55 234 1.55
 330  0.833  0.750  0.125-  46 1.55 283 1.55 275 1.55 235 1.55
 331  0.833  0.750  0.625-  47 1.55 276 1.55 284 1.55 236 1.55
 332  0.083  0.125  0.125-  48 1.55 192 1.55 239 1.55 200 1.55
 333  0.083  0.125  0.625- 193 1.55  49 1.55 240 1.55 201 1.55
 334  0.083  0.375  0.125- 194 1.55 241 1.55  50 1.55 202 1.55
 335  0.084  0.375  0.625-  51 1.55 242 1.55 195 1.55 203 1.55
 336  0.083  0.625  0.125-  52 1.55 196 1.55 204 1.55 243 1.55
 337  0.083  0.625  0.625- 197 1.54 205 1.55  53 1.55 244 1.55
 338  0.083  0.875  0.125-  54 1.55 198 1.55 245 1.55 206 1.55
 339  0.083  0.875  0.625- 199 1.55 246 1.55  55 1.55 207 1.55
 340  0.250  0.125  0.125-  56 1.55 208 1.55 200 1.55 247 1.55
 341  0.250  0.125  0.625- 209 1.55  57 1.55 248 1.55 201 1.55
 342  0.250  0.375  0.125- 210 1.54  58 1.54 202 1.55 249 1.55
 343  0.251  0.376  0.625-  59 1.54 203 1.55 250 1.55 211 1.56
 344  0.250  0.625  0.125-  60 1.54 204 1.55 212 1.55 251 1.55
 345  0.249  0.625  0.625- 205 1.54  61 1.55 213 1.55 252 1.55
 346  0.250  0.875  0.125-  62 1.55 253 1.55 206 1.55 214 1.55
 347  0.250  0.875  0.625- 254 1.54 207 1.55  63 1.55 215 1.55
 348  0.417  0.125  0.125-  64 1.55 255 1.55 216 1.55 208 1.55
 349  0.417  0.125  0.625-  65 1.55 217 1.55 256 1.55 209 1.55
 350  0.417  0.375  0.124- 218 1.55  66 1.55 210 1.55 257 1.55
 351  0.419  0.376  0.626- 574 1.51 211 1.55  67 1.55 258 1.57
 352  0.417  0.625  0.124-  68 1.55 259 1.55 219 1.55 212 1.55
 353  0.415  0.624  0.627- 576 1.48 213 1.54 220 1.56  69 1.56
 354  0.417  0.875  0.125- 260 1.55 221 1.55  70 1.55 214 1.55
 355  0.417  0.875  0.625-  71 1.55 222 1.55 261 1.55 215 1.55
 356  0.583  0.125  0.125-  72 1.55 262 1.55 216 1.55 223 1.55
 357  0.583  0.125  0.625- 263 1.55  73 1.55 217 1.55 224 1.55
 358  0.583  0.375  0.125-  74 1.54 264 1.55 218 1.55 225 1.55
 359  0.583  0.375  0.626- 574 1.49 226 1.55 265 1.55  75 1.55
 360  0.583  0.625  0.124- 266 1.55  76 1.55 219 1.55 227 1.55
 361  0.583  0.623  0.626- 575 1.51 220 1.55  77 1.55 228 1.57
 362  0.583  0.875  0.125- 267 1.55  78 1.55 221 1.55 229 1.55
 363  0.583  0.875  0.625-  79 1.55 222 1.55 230 1.55 268 1.55
 364  0.750  0.125  0.125-  80 1.55 269 1.55 223 1.55 231 1.55
 365  0.750  0.125  0.625- 224 1.54 270 1.54  81 1.55 232 1.55
 366  0.750  0.375  0.125- 225 1.54  82 1.54 271 1.55 233 1.55
 367  0.750  0.375  0.625- 226 1.54  83 1.55 234 1.55 272 1.55
 368  0.750  0.625  0.125-  84 1.54 235 1.55 227 1.55 273 1.55
 369  0.750  0.625  0.625-  85 1.55 236 1.55 274 1.55 228 1.55
 370  0.750  0.875  0.125-  86 1.55 275 1.55 229 1.55 237 1.55
 371  0.750  0.875  0.625- 276 1.55  87 1.55 230 1.55 238 1.55
 372  0.917  0.125  0.125-  88 1.55 277 1.55 231 1.55 192 1.55
 373  0.917  0.125  0.625- 232 1.55 278 1.55  89 1.55 193 1.55
 374  0.917  0.375  0.125-  90 1.55 233 1.55 194 1.55 279 1.55
 375  0.917  0.375  0.625- 234 1.54 280 1.55  91 1.55 195 1.55
 376  0.917  0.625  0.125-  92 1.55 196 1.55 281 1.55 235 1.55
 377  0.917  0.625  0.625- 197 1.55  93 1.55 236 1.55 282 1.55
 378  0.917  0.875  0.125-  94 1.55 237 1.55 283 1.55 198 1.55
 379  0.917  0.875  0.625- 238 1.55  95 1.55 284 1.55 199 1.55
 380  0.000  0.083  0.458-  89 1.55  96 1.55   2 1.55  49 1.55
 381  0.000  0.083  0.958-  88 1.55   1 1.55  97 1.55  48 1.55
 382  0.000  0.333  0.458-  98 1.55  91 1.55   4 1.55  51 1.55
 383  0.000  0.333  0.958-  90 1.55  50 1.55  99 1.55   3 1.55
 384  1.000  0.583  0.458-  53 1.55 100 1.55  93 1.55   6 1.55
 385  1.000  0.583  0.958-  92 1.55  52 1.55 101 1.55   5 1.55
 386  1.000  0.833  0.458-  95 1.55 102 1.55   8 1.55  55 1.55
 387  1.000  0.833  0.958-  94 1.55  54 1.55 103 1.55   7 1.55
 388  0.167  0.083  0.458- 104 1.55  49 1.55  10 1.55  57 1.55
 389  0.167  0.083  0.958- 105 1.55  48 1.55  56 1.55   9 1.55
 390  0.167  0.334  0.458- 106 1.55  51 1.55  12 1.55  59 1.55
 391  0.167  0.333  0.958-  58 1.55 107 1.55  50 1.55  11 1.55
 392  0.167  0.583  0.458-  61 1.55  14 1.55 108 1.55  53 1.55
 393  0.166  0.583  0.958-  52 1.54 109 1.55  60 1.55  13 1.55
 394  0.167  0.833  0.458-  16 1.55 110 1.55  55 1.55  63 1.55
 395  0.167  0.833  0.958-  54 1.55 111 1.55  15 1.55  62 1.55
 396  0.333  0.083  0.458- 112 1.55  57 1.55  65 1.55  18 1.55
 397  0.333  0.083  0.958-  17 1.55 113 1.55  64 1.55  56 1.55
 398  0.334  0.334  0.459-  59 1.55  20 1.55 114 1.55  67 1.55
 399  0.333  0.333  0.958- 115 1.54  66 1.55  58 1.55  19 1.55
 400  0.333  0.583  0.458-  22 1.54  69 1.54 116 1.55  61 1.55
 401  0.333  0.584  0.958- 117 1.54  60 1.54  68 1.55  21 1.55
 402  0.333  0.833  0.458- 118 1.55  24 1.55  71 1.55  63 1.55
 403  0.333  0.833  0.958- 119 1.55  23 1.55  62 1.55  70 1.55
 404  0.500  0.083  0.458- 120 1.55  73 1.55  65 1.55  26 1.55
 405  0.500  0.083  0.958-  25 1.55 121 1.55  72 1.55  64 1.55
 406  0.500  0.334  0.458-  75 1.54  67 1.54 122 1.55  28 1.55
 407  0.500  0.333  0.959- 123 1.54  27 1.54  74 1.55  66 1.55
 408  0.500  0.583  0.456- 572 1.52 124 1.54  77 1.55  69 1.55
 409  0.500  0.583  0.957-  29 1.54  68 1.55  76 1.55 125 1.56
 410  0.500  0.833  0.458-  79 1.55 126 1.55  71 1.55  31 1.55
 411  0.500  0.833  0.958-  30 1.55 127 1.55  78 1.55  70 1.55
 412  0.667  0.083  0.458- 128 1.55  73 1.55  81 1.55  33 1.55
 413  0.667  0.083  0.958-  32 1.55 129 1.55  72 1.55  80 1.55
 414  0.667  0.333  0.459-  83 1.55  35 1.55  75 1.55 130 1.55
 415  0.667  0.333  0.958- 131 1.54  34 1.55  82 1.55  74 1.55
 416  0.666  0.583  0.458-  37 1.54  77 1.54  85 1.55 132 1.55
 417  0.667  0.583  0.959- 133 1.54  84 1.54  36 1.55  76 1.55
 418  0.667  0.833  0.458- 134 1.55  79 1.55  39 1.55  87 1.55
 419  0.667  0.833  0.958-  38 1.55 135 1.55  78 1.55  86 1.55
 420  0.833  0.083  0.458-  81 1.55 136 1.55  41 1.55  89 1.55
 421  0.833  0.083  0.958-  40 1.55 137 1.55  80 1.55  88 1.55
 422  0.833  0.333  0.458- 138 1.55  43 1.55  83 1.55  91 1.55
 423  0.833  0.333  0.958- 139 1.55  82 1.55  42 1.55  90 1.55
 424  0.833  0.583  0.458- 140 1.55  45 1.55  85 1.55  93 1.55
 425  0.833  0.583  0.958-  92 1.55 141 1.55  44 1.55  84 1.55
 426  0.833  0.833  0.458- 142 1.55  87 1.55  47 1.55  95 1.55
 427  0.833  0.833  0.958-  46 1.55  86 1.55 143 1.55  94 1.55
 428  0.083  0.208  0.458-   4 1.55 144 1.55  49 1.55  12 1.55
 429  0.083  0.208  0.958-  11 1.55   3 1.55 145 1.55  48 1.55
 430  0.083  0.458  0.458- 146 1.55  14 1.55  51 1.55   6 1.55
 431  0.083  0.458  0.958-  13 1.55 147 1.55   5 1.55  50 1.55
 432  0.083  0.708  0.458- 148 1.55   8 1.55  53 1.55  16 1.55
 433  0.083  0.708  0.958-   7 1.55  15 1.55 149 1.55  52 1.55
 434  0.083  0.958  0.458- 150 1.55  55 1.55   2 1.55  10 1.55
 435  0.083  0.958  0.958-   1 1.55 151 1.55  54 1.55   9 1.55
 436  0.250  0.208  0.458- 152 1.55  12 1.55  20 1.55  57 1.55
 437  0.250  0.208  0.958- 153 1.55  19 1.55  11 1.55  56 1.55
 438  0.250  0.459  0.459-  59 1.55  14 1.55 154 1.55  22 1.55
 439  0.250  0.458  0.958- 155 1.54  21 1.55  58 1.55  13 1.55
 440  0.250  0.708  0.458-  61 1.55 156 1.55  24 1.55  16 1.55
 441  0.250  0.708  0.958-  15 1.55 157 1.55  23 1.55  60 1.55
 442  0.250  0.958  0.458- 158 1.55  63 1.55  18 1.55  10 1.55
 443  0.250  0.958  0.958-  62 1.55 159 1.55   9 1.55  17 1.55
 444  0.417  0.208  0.458-  28 1.55  20 1.55 160 1.55  65 1.55
 445  0.417  0.208  0.958-  64 1.55  19 1.55 161 1.55  27 1.55
 446  0.417  0.459  0.456- 572 1.52 162 1.54  67 1.55  22 1.55
 447  0.417  0.459  0.957-  29 1.54  21 1.55  66 1.55 163 1.56
 448  0.417  0.708  0.459-  31 1.55  24 1.55 164 1.55  69 1.55
 449  0.417  0.708  0.958- 165 1.54  68 1.55  30 1.55  23 1.55
 450  0.417  0.958  0.458- 166 1.55  18 1.55  26 1.55  71 1.55
 451  0.417  0.958  0.958-  70 1.55  17 1.55 167 1.55  25 1.55
 452  0.583  0.208  0.458- 168 1.55  35 1.55  28 1.55  73 1.55
 453  0.583  0.208  0.958-  72 1.55 169 1.55  34 1.55  27 1.55
 454  0.583  0.458  0.456- 572 1.52 170 1.54  37 1.55  75 1.55
 455  0.583  0.458  0.958- 171 1.54  36 1.55  74 1.55  29 1.55
 456  0.583  0.708  0.459-  31 1.55  39 1.55 172 1.55  77 1.55
 457  0.583  0.708  0.958- 173 1.54  76 1.55  30 1.55  38 1.55
 458  0.583  0.958  0.458- 174 1.55  33 1.55  26 1.55  79 1.55
 459  0.583  0.958  0.958-  78 1.55 175 1.55  32 1.55  25 1.55
 460  0.750  0.208  0.458- 176 1.55  35 1.55  43 1.55  81 1.55
 461  0.750  0.208  0.958- 177 1.55  80 1.55  34 1.55  42 1.55
 462  0.750  0.458  0.459-  83 1.55  45 1.55  37 1.55 178 1.55
 463  0.750  0.458  0.958- 179 1.54  44 1.55  82 1.55  36 1.55
 464  0.750  0.708  0.458-  39 1.55  85 1.55 180 1.55  47 1.55
 465  0.750  0.708  0.958-  46 1.55  38 1.55 181 1.55  84 1.55
 466  0.750  0.958  0.458- 182 1.55  33 1.55  87 1.55  41 1.55
 467  0.750  0.958  0.958-  86 1.55 183 1.55  32 1.55  40 1.55
 468  0.917  0.208  0.458- 184 1.55  43 1.55  89 1.55   4 1.55
 469  0.917  0.208  0.958-  42 1.55  88 1.55 185 1.55   3 1.55
 470  0.917  0.458  0.458-  45 1.55 186 1.55  91 1.55   6 1.55
 471  0.917  0.458  0.958- 187 1.55  44 1.55   5 1.55  90 1.55
 472  0.917  0.708  0.458- 188 1.55  47 1.55  93 1.55   8 1.55
 473  0.917  0.708  0.958-  46 1.55 189 1.55   7 1.55  92 1.55
 474  0.917  0.958  0.458-  41 1.55 190 1.55  95 1.55   2 1.55
 475  0.917  0.958  0.958-  40 1.55  94 1.55 191 1.55   1 1.55
 476  0.000  0.167  0.292- 192 1.55 184 1.55  96 1.55 144 1.55
 477  0.000  0.167  0.792- 185 1.55 193 1.55  97 1.55 145 1.55
 478  0.000  0.417  0.292- 194 1.55  98 1.55 186 1.55 146 1.55
 479  0.000  0.417  0.792- 147 1.55 195 1.55 187 1.55  99 1.55
 480  1.000  0.667  0.292- 196 1.55 188 1.55 100 1.55 148 1.55
 481  1.000  0.667  0.792- 189 1.55 149 1.55 197 1.55 101 1.55
 482  1.000  0.917  0.292- 198 1.55 190 1.55 102 1.55 150 1.55
 483  1.000  0.917  0.792- 191 1.55 103 1.55 199 1.55 151 1.55
 484  0.167  0.167  0.292- 144 1.55 200 1.55 104 1.55 152 1.55
 485  0.167  0.167  0.792- 201 1.55 145 1.55 153 1.55 105 1.55
 486  0.167  0.417  0.292- 146 1.55 106 1.55 154 1.55 202 1.55
 487  0.167  0.417  0.792- 155 1.55 203 1.55 147 1.55 107 1.55
 488  0.167  0.667  0.292- 204 1.55 148 1.55 108 1.55 156 1.55
 489  0.166  0.667  0.792- 149 1.54 157 1.55 205 1.55 109 1.55
 490  0.167  0.917  0.292- 206 1.55 110 1.55 150 1.55 158 1.55
 491  0.167  0.917  0.792- 151 1.55 111 1.55 207 1.55 159 1.55
 492  0.333  0.167  0.292- 160 1.55 208 1.55 152 1.55 112 1.55
 493  0.333  0.167  0.792- 161 1.55 209 1.55 113 1.55 153 1.55
 494  0.333  0.417  0.291- 162 1.54 210 1.54 114 1.55 154 1.55
 495  0.334  0.417  0.791- 163 1.54 211 1.54 115 1.55 155 1.55
 496  0.333  0.667  0.292- 116 1.54 164 1.55 212 1.55 156 1.55
 497  0.333  0.667  0.792- 157 1.54 165 1.55 117 1.55 213 1.55
 498  0.333  0.917  0.292- 214 1.55 166 1.55 118 1.55 158 1.55
 499  0.333  0.917  0.792- 119 1.55 215 1.55 167 1.55 159 1.55
 500  0.500  0.167  0.292- 216 1.55 120 1.55 168 1.55 160 1.55
 501  0.500  0.167  0.792- 217 1.55 121 1.55 169 1.55 161 1.55
 502  0.500  0.417  0.291- 218 1.54 122 1.55 170 1.55 162 1.55
 503  0.501  0.416  0.791- 574 1.49 171 1.55 163 1.55 123 1.55
 504  0.500  0.667  0.291- 124 1.54 219 1.54 172 1.55 164 1.55
 505  0.500  0.666  0.791- 220 1.54 125 1.54 173 1.55 165 1.55
 506  0.500  0.917  0.292- 221 1.55 174 1.55 166 1.55 126 1.55
 507  0.500  0.917  0.792- 127 1.55 222 1.55 175 1.55 167 1.55
 508  0.667  0.167  0.292- 223 1.55 168 1.55 128 1.55 176 1.55
 509  0.667  0.167  0.792- 129 1.55 224 1.55 177 1.55 169 1.55
 510  0.667  0.417  0.291- 170 1.54 225 1.54 178 1.55 130 1.55
 511  0.667  0.417  0.792- 226 1.54 171 1.55 179 1.55 131 1.55
 512  0.667  0.667  0.292- 132 1.55 172 1.55 180 1.55 227 1.55
 513  0.667  0.666  0.792- 173 1.55 181 1.55 228 1.55 133 1.55
 514  0.667  0.917  0.292- 229 1.55 174 1.55 134 1.55 182 1.55
 515  0.667  0.917  0.792- 230 1.55 135 1.55 175 1.55 183 1.55
 516  0.833  0.167  0.292- 176 1.55 231 1.55 136 1.55 184 1.55
 517  0.833  0.167  0.792- 177 1.55 137 1.55 232 1.55 185 1.55
 518  0.833  0.417  0.292- 178 1.55 186 1.55 233 1.55 138 1.55
 519  0.833  0.417  0.792- 179 1.55 187 1.55 234 1.55 139 1.55
 520  0.833  0.667  0.292- 235 1.55 188 1.55 180 1.55 140 1.55
 521  0.833  0.667  0.792- 181 1.55 236 1.55 189 1.55 141 1.55
 522  0.833  0.917  0.292- 237 1.55 182 1.55 142 1.55 190 1.55
 523  0.833  0.917  0.792- 183 1.55 143 1.55 238 1.55 191 1.55
 524  0.083  0.042  0.292- 239 1.55 150 1.55  96 1.55 104 1.55
 525  0.083  0.042  0.792-  97 1.55 151 1.55 240 1.55 105 1.55
 526  0.083  0.292  0.292-  98 1.55 241 1.55 144 1.55 106 1.55
 527  0.083  0.292  0.792- 242 1.55 107 1.55  99 1.55 145 1.55
 528  0.083  0.542  0.292- 108 1.55 243 1.55 146 1.55 100 1.55
 529  0.083  0.542  0.792- 101 1.54 109 1.55 147 1.55 244 1.55
 530  0.083  0.792  0.292- 245 1.55 110 1.55 148 1.55 102 1.55
 531  0.083  0.792  0.792- 103 1.55 111 1.55 149 1.55 246 1.55
 532  0.250  0.042  0.292- 247 1.55 112 1.55 104 1.55 158 1.55
 533  0.250  0.042  0.792- 248 1.55 159 1.55 113 1.55 105 1.55
 534  0.250  0.292  0.292- 114 1.55 106 1.55 152 1.55 249 1.55
 535  0.250  0.292  0.792- 250 1.54 115 1.55 107 1.55 153 1.55
 536  0.250  0.542  0.292- 116 1.54 154 1.55 251 1.55 108 1.55
 537  0.249  0.542  0.792- 109 1.54 155 1.55 117 1.55 252 1.55
 538  0.250  0.792  0.292- 253 1.55 156 1.55 118 1.55 110 1.55
 539  0.250  0.792  0.792- 111 1.54 157 1.55 254 1.55 119 1.55
 540  0.417  0.042  0.292- 255 1.55 112 1.55 120 1.55 166 1.55
 541  0.417  0.042  0.792- 256 1.55 167 1.55 113 1.55 121 1.55
 542  0.417  0.292  0.292- 122 1.55 114 1.55 257 1.55 160 1.55
 543  0.417  0.292  0.792- 115 1.55 161 1.55 258 1.55 123 1.55
 544  0.417  0.542  0.291- 259 1.54 116 1.55 124 1.55 162 1.55
 545  0.415  0.543  0.789- 576 1.48 117 1.55 125 1.56 163 1.56
 546  0.417  0.792  0.292- 118 1.55 126 1.55 164 1.55 260 1.55
 547  0.417  0.792  0.792- 165 1.55 261 1.55 127 1.55 119 1.55
 548  0.583  0.042  0.292- 262 1.55 128 1.55 174 1.55 120 1.55
 549  0.583  0.042  0.792- 175 1.55 263 1.55 129 1.55 121 1.55
 550  0.583  0.292  0.292- 264 1.55 122 1.55 130 1.55 168 1.55
 551  0.584  0.292  0.792- 169 1.55 131 1.55 265 1.55 123 1.55
 552  0.583  0.542  0.291- 266 1.54 132 1.55 170 1.55 124 1.55
 553  0.584  0.541  0.791- 575 1.49 171 1.55 125 1.55 133 1.55
 554  0.583  0.792  0.292- 134 1.55 172 1.55 126 1.55 267 1.55
 555  0.583  0.791  0.792- 268 1.55 173 1.55 127 1.55 135 1.55
 556  0.750  0.042  0.292- 269 1.55 128 1.55 182 1.55 136 1.55
 557  0.750  0.042  0.792- 183 1.55 270 1.55 129 1.55 137 1.55
 558  0.750  0.292  0.292- 130 1.55 271 1.55 176 1.55 138 1.55
 559  0.750  0.292  0.792- 131 1.55 272 1.55 177 1.55 139 1.55
 560  0.750  0.542  0.292- 273 1.55 132 1.55 140 1.55 178 1.55
 561  0.750  0.542  0.792- 141 1.55 179 1.55 274 1.55 133 1.55
 562  0.750  0.792  0.292- 275 1.55 134 1.55 180 1.55 142 1.55
 563  0.750  0.792  0.792- 135 1.55 276 1.55 181 1.55 143 1.55
 564  0.917  0.042  0.292- 136 1.55 277 1.55 190 1.55  96 1.55
 565  0.917  0.042  0.792- 137 1.55 191 1.55 278 1.55  97 1.55
 566  0.917  0.292  0.292- 279 1.55 138 1.55 184 1.55  98 1.55
 567  0.917  0.292  0.792- 139 1.55 280 1.55 185 1.55  99 1.55
 568  0.917  0.542  0.292- 281 1.55 140 1.55 100 1.55 186 1.55
 569  0.917  0.542  0.792- 101 1.55 141 1.55 187 1.55 282 1.55
 570  0.917  0.792  0.292- 283 1.55 142 1.55 188 1.55 102 1.55
 571  0.917  0.792  0.792- 143 1.55 284 1.55 189 1.55 103 1.55
 572  0.500  0.500  0.491- 573 1.09 408 1.52 446 1.52 454 1.52
 573  0.501  0.499  0.579- 572 1.09
 574  0.502  0.411  0.671- 503 1.49 359 1.49 351 1.51
 575  0.590  0.543  0.671- 553 1.49 321 1.49 361 1.51
 576  0.409  0.546  0.670- 353 1.48 306 1.48 545 1.48
 
  LATTYP: Found a simple monoclinic cell.
 ALAT       =    12.3703241348
 B/A-ratio  =     1.2248453018
 C/A-ratio  =     1.4141600350
 COS(beta)  =    -0.0000282295
  
  Lattice vectors:
  
 A1 = (   0.0000000000,  -0.0003492082,  12.3703241299)
 A2 = (  15.1517333984,   0.0000000000,   0.0000000000)
 A3 = (   0.0000000000,  17.4936180115,   0.0000000000)


Analysis of symmetry for initial positions (statically):
=====================================================================
 Subroutine PRICEL returns:
 Original cell was already a primitive cell.
 

 Routine SETGRP: Setting up the symmetry group for a 
 simple monoclinic supercell.


 Subroutine GETGRP returns: Found  1 space group operations
 (whereof  1 operations were pure point group operations)
 out of a pool of  4 trial point group operations.


The static configuration has the point symmetry C_1 .


Analysis of symmetry for dynamics (positions and initial velocities):
=====================================================================
 Subroutine PRICEL returns:
 Original cell was already a primitive cell.
 

 Routine SETGRP: Setting up the symmetry group for a 
 simple monoclinic supercell.


 Subroutine GETGRP returns: Found  1 space group operations
 (whereof  1 operations were pure point group operations)
 out of a pool of  4 trial point group operations.


The dynamic configuration has the point symmetry C_1 .


Analysis of structural, dynamic, and magnetic symmetry:
=====================================================================
 Subroutine PRICEL returns:
 Original cell was already a primitive cell.
 

 Routine SETGRP: Setting up the symmetry group for a 
 simple monoclinic supercell.


 Subroutine GETGRP returns: Found  1 space group operations
 (whereof  1 operations were pure point group operations)
 out of a pool of  4 trial point group operations.


The overall configuration has the point symmetry C_1 .


 Subroutine INISYM returns: Found  1 space group operations
 (whereof  1 operations are pure point group operations),
 and found     1 'primitive' translations


----------------------------------------------------------------------------------------

                                     Primitive cell                                     

  volume of cell :    3278.8612

  direct lattice vectors                    reciprocal lattice vectors
    15.151733398  0.000000000  0.000000000     0.065999049  0.000000000  0.000000000
     0.000000000 17.493618012  0.000000000     0.000000000  0.057163704  0.000001614
     0.000000000 -0.000349208 12.370324130     0.000000000  0.000000000  0.080838626

  length of vectors
    15.151733398 17.493618012 12.370324135     0.065999049  0.057163704  0.080838626

  position of ions in fractional coordinates (direct lattice)
     0.999999036  0.000028910  0.000020076
     0.000006510  0.000039132  0.500003349
     0.000051310  0.249994523  0.000000276
     0.000078108  0.250026764  0.499997254
     0.000006108  0.499991006  0.000048956
     0.000006755  0.499999608  0.500011458
     0.999939803  0.750036290  0.000108334
     0.999918460  0.750026243  0.500044382
     0.166660928  0.000037526  0.000019083
     0.166665175  0.000065455  0.500010847
     0.166703035  0.250038636  0.999940967
     0.166822343  0.250157547  0.500029601
     0.166615596  0.500034212  0.999984941
     0.166623248  0.500121615  0.500060786
     0.166550262  0.750089392  0.000113688
     0.166554724  0.750088132  0.500018113
     0.333350801  0.999999615  0.000031714
     0.333357875  0.000006618  0.500021259
     0.333376898  0.250062354  0.999894392
     0.333494147  0.250201840  0.500079497
     0.333285856  0.500094568  0.999619609
     0.334176781  0.500623684  0.500387853
     0.333279082  0.750031709  0.999964921
     0.333207222  0.749998167  0.500094571
     0.500007441  0.999964496  0.000039897
     0.500001243  0.999945867  0.500033177
     0.500031938  0.249862530  0.000332914
     0.500072162  0.250145627  0.500032722
     0.500001121  0.499985750  0.999374151
     0.499971356  0.750000747  0.999798530
     0.499880079  0.749555891  0.500204156
     0.666662818  0.999940773  0.000045343
     0.666640696  0.999901117  0.500029081
     0.666716667  0.249950867  0.000007875
     0.666734069  0.249970982  0.500071474
     0.666762768  0.499966820  0.999969380
     0.666177772  0.499919442  0.500136780
     0.666620950  0.749925863  0.999916399
     0.666530221  0.749758759  0.500094205
     0.833343673  0.999972575  0.000024300
     0.833343025  0.999955724  0.500011884
     0.833402304  0.249966667  0.999988468
     0.833381626  0.249990225  0.500017116
     0.833389636  0.499963988  0.000036333
     0.833356617  0.499929974  0.500056983
     0.833320673  0.750004048  0.000078453
     0.833241232  0.749923602  0.500034064
     0.083354873  0.125027694  0.999993820
     0.083391525  0.125077489  0.500003088
     0.083376480  0.375005674  0.999968697
     0.083463965  0.375061502  0.500009326
     0.083215788  0.625047820  0.000163159
     0.083185950  0.625054332  0.500004850
     0.083281148  0.875056772  0.000065072
     0.083276110  0.875065859  0.500016885
     0.250024004  0.125031009  0.999967927
     0.250075277  0.125083129  0.500013477
     0.249990347  0.375028618  0.999744884
     0.250409964  0.375326059  0.500185052
     0.249748377  0.625129851  0.000239885
     0.249769649  0.625123717  0.499935887
     0.249969537  0.875037541  0.000036953
     0.249946738  0.875038380  0.500023570
     0.416672537  0.124982138  0.000028408
     0.416716545  0.125061141  0.500013652
     0.416725687  0.375099718  0.999400750
     0.417293494  0.375706563  0.500131308
     0.416563237  0.624998157  0.999577709
     0.416481751  0.624070137  0.500405351
     0.416666607  0.874981479  0.999999929
     0.416654577  0.874882602  0.500036270
     0.583356955  0.124941752  0.000072806
     0.583355287  0.124990665  0.500023867
     0.583411306  0.374905628  0.999935707
     0.583145790  0.375378447  0.500151533
     0.583234165  0.624901876  0.999419237
     0.582934241  0.624170908  0.500111842
     0.583313896  0.874948365  0.999967104
     0.583246234  0.874781509  0.500047076
     0.750032961  0.124946722  0.000021229
     0.750044181  0.124923469  0.500010439
     0.750131211  0.374925854  0.999877554
     0.749947934  0.375011325  0.500139940
     0.750144117  0.625035426  0.000391059
     0.749822729  0.624816149  0.500036596
     0.749976450  0.874950870  0.999998172
     0.749941674  0.874889843  0.500027586
     0.916703607  0.124994262  0.000003160
     0.916716020  0.125008617  0.499991835
     0.916736995  0.374968693  0.999981908
     0.916722689  0.374987020  0.500005460
     0.916667682  0.625001842  0.000142140
     0.916574614  0.624963365  0.500026198
     0.916650455  0.875015868  0.000046601
     0.916623581  0.874994659  0.500015920
     0.000027749  0.083366070  0.333343273
     0.000031151  0.083362286  0.833327690
     0.000064253  0.333350108  0.333343168
     0.000087941  0.333324634  0.833303208
     0.999954697  0.583315943  0.333368316
     0.999922912  0.583353522  0.833440900
     0.999966110  0.833349465  0.333391693
     0.999925843  0.833390452  0.833377619
     0.166710697  0.083385797  0.333332473
     0.166711632  0.083392955  0.833297958
     0.166817724  0.333433543  0.333407228
     0.166756306  0.333403068  0.833193643
     0.166611085  0.583355826  0.333295950
     0.166328367  0.583463137  0.833507407
     0.166653500  0.833366093  0.333346320
     0.166541851  0.833460875  0.833408707
     0.333353852  0.083364574  0.333346664
     0.333348719  0.083345949  0.833316107
     0.333423958  0.333471925  0.333314631
     0.333499793  0.333490596  0.833095725
     0.333266152  0.583368121  0.333081522
     0.332554486  0.583740939  0.834147747
     0.333314029  0.833311865  0.333358414
     0.333250598  0.833371438  0.833333866
     0.500007460  0.083313582  0.333417378
     0.500027705  0.083318457  0.833335232
     0.500047678  0.333419359  0.333253684
     0.500196053  0.333047146  0.834512981
     0.499852173  0.583956754  0.331990237
     0.499818708  0.582995126  0.831440440
     0.499976195  0.833183829  0.333431916
     0.499960626  0.833260001  0.833258558
     0.666673634  0.083302162  0.333366600
     0.666724707  0.083226839  0.833360457
     0.666729583  0.333339879  0.333318794
     0.666850736  0.333251763  0.833311443
     0.666589628  0.583222867  0.333231932
     0.667020328  0.583298444  0.834543738
     0.666628519  0.833236014  0.333366602
     0.666618212  0.833202246  0.833258232
     0.833338721  0.083319949  0.333329818
     0.833366815  0.083275246  0.833325522
     0.833351566  0.333329457  0.333364180
     0.833463612  0.333252070  0.833269024
     0.833278110  0.583270638  0.333368946
     0.833385373  0.583247628  0.833436464
     0.833275514  0.833293083  0.333361409
     0.833285208  0.833307565  0.833346529
     0.083414576  0.208393229  0.333360703
     0.083414923  0.208374287  0.833302279
     0.083375439  0.458345093  0.333352392
     0.083359587  0.458369256  0.833340913
     0.083295191  0.708358144  0.333408430
     0.083176671  0.708431292  0.833445495
     0.083353699  0.958369524  0.333355835
     0.083320589  0.958406244  0.833362858
     0.250060109  0.208417062  0.333374934
     0.250094452  0.208433970  0.833272597
     0.250161261  0.458477376  0.333436569
     0.249989977  0.458470726  0.833256182
     0.249950268  0.708373611  0.333335028
     0.249704051  0.708566847  0.833495300
     0.250013756  0.958358251  0.333378948
     0.249978474  0.958383394  0.833374758
     0.416680007  0.208417990  0.333339331
     0.416689925  0.208374088  0.833312966
     0.415981885  0.458142463  0.331977081
     0.416910442  0.458637482  0.831436002
     0.416600068  0.708152339  0.333449609
     0.416527550  0.708315825  0.833233575
     0.416657916  0.958292097  0.333394890
     0.416649165  0.958310348  0.833334642
     0.583377583  0.208360620  0.333381903
     0.583481399  0.208253452  0.833404760
     0.583954926  0.458018696  0.332066950
     0.583495397  0.458229760  0.833250095
     0.583265949  0.708186634  0.333333998
     0.583275872  0.708131378  0.833141707
     0.583330802  0.958256637  0.333408018
     0.583341032  0.958259456  0.833321217
     0.750041639  0.208317901  0.333377675
     0.750097737  0.208245336  0.833357365
     0.750011909  0.458279991  0.333339120
     0.750131905  0.458216690  0.833362249
     0.749908428  0.708247925  0.333374672
     0.749939434  0.708267686  0.833365555
     0.749979886  0.958291510  0.333390390
     0.749996077  0.958251840  0.833357194
     0.916687482  0.208352303  0.333350626
     0.916723515  0.208305551  0.833321048
     0.916683834  0.458299608  0.333345270
     0.916719079  0.458296364  0.833353722
     0.916618087  0.708321972  0.333440612
     0.916561151  0.708328850  0.833395467
     0.916639088  0.958332967  0.333359276
     0.916641232  0.958341367  0.833352523
     0.000032672  0.166691030  0.166670266
     0.000084288  0.166694471  0.666641884
     0.000039197  0.416652183  0.166666651
     0.000133288  0.416668801  0.666658803
     0.999965721  0.666678719  0.166775481
     0.999826835  0.666724352  0.666691239
     0.999987688  0.916692958  0.166704491
     0.999955477  0.916734238  0.666665908
     0.166693844  0.166707974  0.166665455
     0.166806377  0.166815707  0.666643800
     0.166718392  0.416702229  0.166653884
     0.166831139  0.416875377  0.666642881
     0.166584087  0.666715515  0.166792209
     0.166215090  0.666924382  0.666680674
     0.166665551  0.916698563  0.166696121
     0.166570461  0.916810469  0.666688528
     0.333354940  0.166705269  0.166660599
     0.333328377  0.166662550  0.666632721
     0.333145254  0.416629133  0.166103383
     0.334644219  0.417793380  0.666913230
     0.333302079  0.666687061  0.166533243
     0.332352936  0.667615661  0.666657266
     0.333347182  0.916663456  0.166707009
     0.333304588  0.916662448  0.666679294
     0.500005780  0.166636692  0.166794936
     0.500064603  0.166690895  0.666616498
     0.499997580  0.416638507  0.166157570
     0.499942221  0.666830168  0.166127806
     0.499533228  0.665131659  0.666923269
     0.500003821  0.916609936  0.166713818
     0.499968509  0.916557595  0.666630723
     0.666682249  0.166646701  0.166716548
     0.666956883  0.166340234  0.666647325
     0.666906454  0.416544828  0.166278970
     0.666882104  0.416540309  0.666731532
     0.666596376  0.666610917  0.166510171
     0.666538318  0.666706226  0.666527288
     0.666651311  0.916624355  0.166702841
     0.666591224  0.916479428  0.666663448
     0.833363103  0.166662094  0.166679791
     0.833437751  0.166572021  0.666652391
     0.833389791  0.416641758  0.166641897
     0.833573264  0.416575702  0.666665005
     0.833353140  0.666680788  0.166867513
     0.833221307  0.666592971  0.666643629
     0.833316369  0.916655172  0.166694300
     0.833335108  0.916640211  0.666671280
     0.083359387  0.041698835  0.166666167
     0.083368363  0.041757002  0.666653199
     0.083398780  0.291692323  0.166670380
     0.083476628  0.291741953  0.666608783
     0.083318280  0.541665949  0.166695425
     0.083037266  0.541739564  0.666678362
     0.083306869  0.791700242  0.166735949
     0.083183964  0.791797872  0.666692119
     0.250017027  0.041688058  0.166640711
     0.249995928  0.041686624  0.666629036
     0.250039795  0.291711851  0.166579585
     0.250389019  0.292042177  0.666626969
     0.249967619  0.541687002  0.166521353
     0.248649731  0.541979527  0.666657238
     0.249978369  0.791689600  0.166652562
     0.249698745  0.791998693  0.666688174
     0.416664164  0.041651452  0.166709544
     0.416674742  0.041657015  0.666648841
     0.416668138  0.291735710  0.166493198
     0.416565273  0.291704266  0.666499825
     0.416565361  0.541719389  0.166096456
     0.416641184  0.791619290  0.166664536
     0.416518962  0.791500071  0.666661878
     0.583342765  0.041626189  0.166730419
     0.583352393  0.041588095  0.666655901
     0.583375486  0.291654590  0.166648158
     0.584232828  0.291038896  0.666504461
     0.583359398  0.541674624  0.166155956
     0.583330036  0.791618404  0.166614238
     0.583141775  0.791185806  0.666649932
     0.749999869  0.041639976  0.166663808
     0.750072856  0.041491183  0.666643889
     0.750045175  0.291640040  0.166617375
     0.750191620  0.291496995  0.666641838
     0.750028470  0.541637770  0.166640445
     0.750997951  0.541264220  0.666514836
     0.749967943  0.791626388  0.166651926
     0.749962523  0.791665115  0.666623804
     0.916664126  0.041675969  0.166669290
     0.916692006  0.041664587  0.666647916
     0.916693068  0.291668654  0.166665418
     0.916792162  0.291618849  0.666625137
     0.916660925  0.541648111  0.166718577
     0.916922622  0.541601731  0.666653275
     0.916633862  0.791679788  0.166738347
     0.916585814  0.791672117  0.666672824
     0.000003607  0.000025609  0.125003129
     0.000011473  0.000056044  0.624987065
     0.000041286  0.250021752  0.124989584
     0.000114849  0.250027041  0.624970290
     0.000003909  0.500001399  0.125010599
     0.000034821  0.500056032  0.625030303
     0.999964408  0.750027349  0.125087255
     0.999894625  0.750054859  0.625031962
     0.166669222  0.000027729  0.124987257
     0.166631373  0.000080409  0.624990211
     0.166706851  0.250040732  0.124940393
     0.166899914  0.250270726  0.624967151
     0.166642418  0.500032579  0.124932648
     0.166096444  0.500220473  0.625030025
     0.166599119  0.750050584  0.125048218
     0.166405665  0.750211445  0.625015078
     0.333354304  0.999992435  0.125006869
     0.333355915  0.999993243  0.624984527
     0.333368552  0.250047544  0.124871521
     0.333501148  0.250014974  0.625032568
     0.333280702  0.500018366  0.124518317
     0.333223386  0.502006020  0.626536707
     0.333303029  0.750010667  0.124917329
     0.332817624  0.750425150  0.625049507
     0.500003180  0.999957556  0.125039334
     0.500002031  0.999921690  0.624996159
     0.500014601  0.249908013  0.125091872
     0.500199518  0.250073985  0.624988431
     0.499959758  0.500015937  0.124418224
     0.499977916  0.750026704  0.124698717
     0.499603112  0.749107101  0.625034814
     0.666654694  0.999950674  0.125021004
     0.666627998  0.999852786  0.624995368
     0.666686762  0.249965625  0.124954353
     0.667001900  0.249473056  0.625086451
     0.666752266  0.499953705  0.124715241
     0.666519029  0.500052591  0.625813488
     0.666638125  0.749945210  0.124886704
     0.666695155  0.749860931  0.625055096
     0.833338455  0.999982681  0.124994915
     0.833382603  0.999922246  0.624991028
     0.833374287  0.249988289  0.124958767
     0.833439204  0.249928928  0.625001785
     0.833374659  0.499990083  0.124964015
     0.833921989  0.499979066  0.625083761
     0.833337640  0.750001016  0.125047495
     0.833278960  0.749951900  0.625007651
     0.083355591  0.125031203  0.124986886
     0.083412461  0.125106996  0.624981496
     0.083377333  0.375023716  0.124983906
     0.083519505  0.375077592  0.624985771
     0.083260861  0.625034385  0.125100530
     0.083039975  0.625130762  0.625019824
     0.083304350  0.875033993  0.125042817
     0.083234647  0.875101095  0.625014438
     0.250024009  0.125035205  0.124965107
     0.250064106  0.125018038  0.624996433
     0.249955404  0.375016671  0.124640299
     0.250725129  0.375755199  0.625014346
     0.249866991  0.625080235  0.125045022
     0.249282978  0.625399849  0.624948342
     0.249993635  0.875023496  0.125011727
     0.249833842  0.875172510  0.625027233
     0.416681896  0.124982438  0.125021838
     0.416728252  0.125004996  0.624997371
     0.416637320  0.375096589  0.124424322
     0.418571001  0.376378391  0.625580450
     0.416641704  0.625045321  0.124494144
     0.414625996  0.624108317  0.626557681
     0.416670328  0.874960610  0.125016857
     0.416656893  0.874867533  0.625007504
     0.583333259  0.124954327  0.125052105
     0.583392646  0.124905865  0.625004409
     0.583425056  0.374947992  0.124685649
     0.583183284  0.375045543  0.625843588
     0.583197123  0.624975628  0.124434401
     0.582881537  0.622897914  0.625560745
     0.583325094  0.874944606  0.124977181
     0.583170803  0.874681655  0.624996345
     0.750011905  0.124975254  0.125000577
     0.750129679  0.124756534  0.625011777
     0.750123679  0.374944861  0.124727960
     0.750058082  0.374957561  0.625166016
     0.750106442  0.625038041  0.125133673
     0.749947414  0.624778351  0.624997542
     0.749981168  0.874964955  0.124992789
     0.750009098  0.874942086  0.625012425
     0.916693803  0.125007335  0.124990472
     0.916741549  0.124983507  0.624980823
     0.916719994  0.374996068  0.124960677
     0.916817735  0.374962555  0.625007089
     0.916671741  0.625012854  0.125104102
     0.916616142  0.624997116  0.625024074
     0.916659454  0.875007035  0.125033946
     0.916641133  0.875000597  0.625004549
     0.000041624  0.083376965  0.458331470
     0.000021526  0.083354720  0.958327507
     0.000090103  0.333372886  0.458331492
     0.000062592  0.333331174  0.958304595
     0.999918615  0.583347859  0.458343909
     0.999960086  0.583368199  0.958438618
     0.999945948  0.833362960  0.458369007
     0.999952736  0.833375706  0.958391073
     0.166724411  0.083407893  0.458321189
     0.166686182  0.083368680  0.958297577
     0.166934730  0.333534345  0.458418284
     0.166703167  0.333374444  0.958148094
     0.166545255  0.583422240  0.458285783
     0.166457400  0.583436708  0.958453702
     0.166599584  0.833392909  0.458329021
     0.166575780  0.833411859  0.958395754
     0.333387729  0.083372510  0.458334986
     0.333353568  0.083321199  0.958315999
     0.333819236  0.333706875  0.458596230
     0.333395010  0.333438367  0.957985101
     0.333240437  0.583393788  0.458201261
     0.332909319  0.583562984  0.958499863
     0.333291087  0.833285739  0.458324087
     0.333290148  0.833356696  0.958311044
     0.500020067  0.083308097  0.458370988
     0.500014290  0.083294184  0.958349399
     0.500158276  0.333645718  0.458441139
     0.500097939  0.332966836  0.958640831
     0.499831760  0.583120872  0.456252106
     0.499669518  0.583090086  0.957163046
     0.499926290  0.833045724  0.458451183
     0.499975152  0.833301805  0.958227355
     0.666663667  0.083267098  0.458346447
     0.666683159  0.083247097  0.958354914
     0.666503085  0.333468995  0.458513201
     0.666772292  0.333255550  0.958204255
     0.666400047  0.583026958  0.458415973
     0.667056173  0.583431533  0.958686359
     0.666587391  0.833119976  0.458358482
     0.666633450  0.833250048  0.958248804
     0.833355107  0.083296669  0.458310988
     0.833360183  0.083290817  0.958322630
     0.833303695  0.333356474  0.458358004
     0.833432541  0.333282543  0.958219080
     0.833224657  0.583256157  0.458357274
     0.833411304  0.583336556  0.958435202
     0.833277899  0.833263322  0.458342776
     0.833331528  0.833318557  0.958347038
     0.083443296  0.208430081  0.458348319
     0.083385875  0.208356631  0.958301541
     0.083393151  0.458393204  0.458310087
     0.083344766  0.458359634  0.958319441
     0.083247748  0.708387549  0.458366249
     0.083232471  0.708401748  0.958449087
     0.083336206  0.958389433  0.458334567
     0.083324354  0.958381262  0.958355217
     0.250153821  0.208489267  0.458363659
     0.250054604  0.208394190  0.958256295
     0.250368934  0.458679239  0.458895780
     0.249967030  0.458410527  0.958133471
     0.249875731  0.708400150  0.458324050
     0.249804023  0.708466592  0.958440196
     0.249997322  0.958365538  0.458358706
     0.249992750  0.958363554  0.958370287
     0.416759684  0.208470502  0.458363284
     0.416693894  0.208295686  0.958336578
     0.416791574  0.458582992  0.456253829
     0.416719997  0.458691141  0.957168679
     0.416517570  0.707901203  0.458929321
     0.416589243  0.708338578  0.958110647
     0.416658418  0.958266720  0.458371269
     0.416661973  0.958307289  0.958342689
     0.583364115  0.208383048  0.458377873
     0.583386001  0.208233878  0.958396973
     0.583282384  0.458353541  0.456311160
     0.583477296  0.458246382  0.957927252
     0.583215191  0.707791075  0.458608014
     0.583265461  0.708235101  0.958031922
     0.583312743  0.958194421  0.458385784
     0.583340013  0.958272501  0.958327714
     0.750020275  0.208316743  0.458342226
     0.750050636  0.208268165  0.958333027
     0.749768503  0.458372886  0.458512786
[...]
 196       0.003    -0.002    -0.004       1.201
 197       0.004     0.001    -0.016       0.161
 198       0.001     0.000    -0.001       0.708
 199      -0.005    -0.000    -0.007      -0.603
 200      -0.001     0.001    -0.002      -0.814
 201      -0.005    -0.002    -0.016      -0.196
 202      -0.003    -0.003     0.007       0.041
 203       0.015     0.014    -0.017       0.084
 204      -0.003    -0.001     0.004       0.395
 205       0.006     0.003    -0.013       0.192
 206       0.001     0.000    -0.002       0.478
 207       0.003    -0.001    -0.006       0.682
 208      -0.003    -0.002     0.004       0.358
 209      -0.167    -0.160    -0.262      -0.025
 210      -0.008    -0.002    -0.024      -0.259
 211      -0.320    -0.282    -0.496      -0.077
 212       0.004    -0.003    -0.008       0.749
 213      -0.024     0.020     0.024       1.824
 214       0.003     0.000    -0.003       0.799
 215       0.002     0.001    -0.009       0.186
 216      -0.010     0.000    -0.019      -0.532
 217      -0.082    -0.081    -0.163      -0.005
 218       0.011     0.008    -0.025       0.109
 219      -0.006    -0.002    -0.023      -0.203
 220      -0.339    -0.298    -0.511      -0.081
 221       0.005    -0.001    -0.005       1.212
 222       0.007     0.006    -0.013       0.064
 223      -0.004    -0.002     0.005       0.334
 224      -0.106    -0.100    -0.181      -0.033
 225       0.009     0.008    -0.016       0.098
 226      -0.179    -0.026     0.180       0.848
 227      -0.020    -0.014    -0.036      -0.159
 228      -2.256    -2.239    -3.149      -0.005
 229       0.004    -0.001    -0.004       1.147
 230      -0.009    -0.009    -0.027      -0.033
 231       0.001    -0.001    -0.002       1.042
 232       0.010    -0.002     0.013      -0.854
 233       0.006    -0.002    -0.008       1.069
 234       0.029    -0.007     0.041      -0.880
 235      -0.009    -0.000    -0.018      -0.469
 236      -0.085    -0.084    -0.166      -0.007
 237       0.002     0.000    -0.002       0.669
 238      -0.006    -0.002    -0.026      -0.158
 239       0.001    -0.000    -0.002       0.671
 240      -0.004    -0.000    -0.007      -0.636
 241      -0.003    -0.001     0.003       0.612
 242       0.003     0.001    -0.013       0.150
 243       0.005    -0.003    -0.006       1.272
 244       0.003     0.001    -0.027       0.074
 245       0.000     0.000    -0.002       0.149
 246       0.004    -0.001    -0.005       1.197
 247       0.002     0.001    -0.002       0.625
 248      -0.025    -0.022    -0.042      -0.051
 249       0.004    -0.003    -0.006       1.022
 250      -0.007    -0.005    -0.050      -0.027
 251       0.005    -0.004    -0.008       1.178
 252       0.024     0.022    -0.029       0.081
 253       0.001    -0.001    -0.002       1.130
 254       0.006     0.003    -0.008       0.359
 255       0.004    -0.002    -0.005       1.048
 256       0.003     0.003    -0.018       0.031
 257      -0.019    -0.013    -0.035      -0.163
 258      -2.238    -2.221    -3.109      -0.005
 259       0.010     0.008    -0.017       0.163
 260      -0.002    -0.002     0.005       0.158
 261       0.008     0.007    -0.019       0.087
 262       0.004    -0.002    -0.006       1.028
 263       0.003     0.002    -0.020       0.049
 264       0.007     0.002    -0.017       0.245
 265      -1.783    -1.757    -2.528      -0.010
 266       0.011     0.008    -0.025       0.122
 267      -0.004     0.004    -0.007      -1.290
 268      -0.007    -0.006    -0.052      -0.016
 269       0.003     0.000    -0.003       0.844
 270      -0.029    -0.028    -0.045      -0.015
 271       0.004    -0.000    -0.007       0.647
 272       0.027    -0.006     0.040      -0.823
 273       0.008     0.002    -0.017       0.320
 274      -1.793    -1.766    -2.557      -0.011
 275      -0.003    -0.002     0.004       0.335
 276      -0.171    -0.164    -0.267      -0.027
 277       0.001     0.000    -0.002       0.268
 278      -0.009    -0.003    -0.010      -0.621
 279      -0.003    -0.002     0.003       0.425
 280       0.008    -0.006     0.011      -1.326
 281      -0.004    -0.003     0.007       0.213
 282      -0.101    -0.094    -0.181      -0.042
 283       0.002    -0.001    -0.003       0.915
 284      -0.002     0.001    -0.017      -0.190
 285       0.001    -0.000    -0.001       0.836
 286      -0.003    -0.002     0.003       0.523
 287      -0.002     0.000     0.003       0.921
 288       0.006     0.003    -0.006       0.533
 289       0.005    -0.003    -0.006       1.240
 290      -0.021    -0.020    -0.064      -0.018
 291       0.002    -0.000    -0.002       0.874
 292      -0.005     0.004     0.007       1.236
 293       0.001     0.001    -0.002       0.259
 294      -0.011    -0.006    -0.018      -0.251
 295      -0.003    -0.001     0.003       0.539
 296       0.008    -0.008     0.012      -1.410
 297      -0.004    -0.002     0.007       0.253
 298       0.009     0.007    -0.034       0.043
 299      -0.002     0.000     0.002       0.863
 300       0.006     0.002    -0.006       0.554
 301       0.003     0.001    -0.003       0.806
 302       0.006    -0.005     0.008      -1.405
 303      -0.006     0.002     0.007       1.051
 304      -0.558    -0.558    -0.789      -0.000
 305      -0.003     0.003    -0.021      -0.309
 306      -0.044     0.002    -0.153      -0.297
 307      -0.003    -0.001     0.004       0.565
 308      -0.006    -0.004    -0.033      -0.068
 309      -0.004     0.000     0.006       0.825
 310       0.008     0.006    -0.010       0.118
 311      -0.029    -0.023    -0.061      -0.105
 312       0.128     0.033     0.133      -0.713
 313       0.017     0.015    -0.019       0.116
 314      -0.008    -0.001     0.008       0.832
 315       0.060     0.018     0.066      -0.639
 316      -0.004     0.000     0.004       0.943
 317       0.007     0.007    -0.008       0.030
 318       0.007     0.002    -0.007       0.766
 319      -0.219    -0.215    -0.352      -0.012
 320       0.009     0.006    -0.024       0.141
 321       1.078     0.845     1.139      -0.204
 322      -0.006     0.001     0.008       0.870
 323      -0.564    -0.563    -0.799      -0.002
 324       0.002     0.001    -0.002       0.393
 325       0.008    -0.008     0.012      -1.372
 326      -0.003     0.002    -0.005      -1.085
 327       0.005     0.001    -0.017       0.202
 328      -0.008     0.000     0.009       0.847
 329      -0.202    -0.200    -0.348      -0.008
 330      -0.002     0.001     0.005       0.518
 331       0.017    -0.004     0.022      -0.952
 332       0.001     0.000    -0.001       0.466
 333      -0.003     0.001     0.005       0.733
 334       0.004    -0.003    -0.006       1.227
 335       0.004     0.004    -0.016       0.025
 336      -0.004    -0.001     0.005       0.618
 337       0.007     0.006    -0.010       0.115
 338      -0.001    -0.000     0.001       0.288
 339      -0.003     0.002    -0.005      -1.165
 340      -0.002     0.000    -0.004      -0.566
 341      -0.096    -0.093    -0.134      -0.025
 342      -0.008    -0.002     0.008       0.782
 343       0.059     0.015     0.064      -0.683
 344      -0.004    -0.000     0.006       0.520
 345      -0.015     0.013     0.017       1.639
 346       0.002     0.001    -0.002       0.480
 347       0.001    -0.001    -0.009       0.345
 348      -0.003     0.000     0.007       0.399
 349       0.017    -0.008     0.021      -1.217
 350      -0.014     0.011     0.014       1.700
 351       0.384    -0.158     0.411      -1.319
 352      -0.002     0.001    -0.022      -0.178
 353      -0.060    -0.008    -0.154      -0.335
 354      -0.004    -0.001     0.004       0.704
 355      -0.008     0.007     0.008       1.867
 356      -0.003     0.000     0.007       0.367
 357       0.020    -0.006     0.022      -1.214
 358       0.008     0.006    -0.024       0.087
 359       1.058     0.832     1.119      -0.202
 360      -0.014     0.011     0.014       1.719
 361       0.403    -0.142     0.430      -1.266
 362      -0.004    -0.001     0.005       0.566
 363       0.012    -0.010     0.013      -1.764
 364       0.002    -0.001    -0.004       1.013
 365      -0.041    -0.038    -0.068      -0.053
 366      -0.007     0.004     0.010       1.237
 367       0.088     0.057     0.108      -0.291
 368      -0.030    -0.024    -0.062      -0.091
 369       0.130     0.034     0.135      -0.708
 370      -0.003     0.001    -0.005      -0.744
 371      -0.099    -0.098    -0.143      -0.008
 372       0.001     0.001    -0.001       0.078
 373       0.004    -0.000    -0.005       0.896
 374      -0.006     0.002    -0.008      -0.952
 375       0.003     0.002    -0.021       0.057
 376      -0.002     0.000     0.007       0.333
 377       0.018    -0.007     0.021      -1.219
 378       0.001     0.001    -0.001       0.242
 379      -0.003     0.003    -0.007      -0.780
 380      -0.002    -0.001     0.003       0.110
 381      -0.001    -0.001     0.002       0.113
 382       0.005     0.002    -0.008       0.394
 383       0.004     0.000    -0.007       0.559
 384      -0.008     0.004     0.009       1.438
 385      -0.006     0.003     0.008       1.174
 386       0.002    -0.001    -0.004       0.830
 387      -0.002     0.000     0.002       1.049
 388       0.003     0.001    -0.004       0.513
 389       0.001     0.000    -0.004       0.342
 390       0.001    -0.001    -0.022       0.075
 391       0.007     0.002    -0.009       0.515
 392       0.008     0.004    -0.012       0.299
 393       0.007     0.002    -0.008       0.621
 394       0.003     0.000    -0.003       0.920
 395      -0.002     0.000     0.002       1.072
 396       0.005     0.004    -0.007       0.135
 397      -0.005     0.003     0.005       1.473
 398       0.060     0.020     0.067      -0.596
 399       0.013     0.010    -0.022       0.145
 400       0.018     0.016    -0.028       0.057
 401       0.013     0.011    -0.016       0.144
 402       0.003     0.002    -0.009       0.108
 403       0.004     0.003    -0.005       0.338
 404       0.006     0.002    -0.012       0.351
 405      -0.007     0.004     0.008       1.274
 406       0.086    -0.005     0.097      -0.939
 407      -0.191    -0.186    -0.326      -0.017
 408      -0.297    -0.229    -0.452      -0.149
 409      -0.031     0.027     0.033       1.778
 410      -0.002     0.001    -0.023      -0.110
 411       0.007     0.003    -0.009       0.516
 412       0.007     0.005    -0.007       0.345
 413      -0.005     0.003     0.007       1.366
 414       0.028     0.023    -0.031       0.158
 415       0.020    -0.014     0.021      -1.608
 416       0.086    -0.006     0.097      -0.943
 417      -0.197    -0.192    -0.334      -0.016
 418       0.010     0.006    -0.011       0.337
 419       0.002    -0.002    -0.014       0.292
 420       0.004     0.002    -0.004       0.521
 421       0.003     0.002    -0.003       0.396
 422       0.010    -0.009     0.012      -1.596
 423       0.008    -0.006     0.011      -1.331
 424      -0.019     0.014     0.019       1.738
 425       0.019    -0.002     0.025      -0.874
 426       0.005     0.003    -0.006       0.326
 427      -0.004     0.004     0.005       1.594
 428       0.003     0.001    -0.005       0.406
 429       0.003     0.001    -0.003       0.509
 430       0.007     0.002    -0.012       0.379
 431       0.006     0.000    -0.009       0.657
 432       0.003     0.001    -0.006       0.387
 433      -0.004     0.001     0.004       1.353
 434      -0.002    -0.000     0.003       0.650
 435      -0.002    -0.000     0.002       0.783
 436       0.009     0.007    -0.009       0.204
 437      -0.001     0.000    -0.013      -0.114
 438       0.006     0.004    -0.036       0.059
 439      -0.012     0.009     0.015       1.370
 440       0.005     0.004    -0.010       0.114
 441       0.005     0.003    -0.007       0.239
 442       0.003     0.001    -0.004       0.491
 443       0.003     0.001    -0.003       0.432
 444       0.016     0.012    -0.019       0.228
 445       0.017    -0.004     0.022      -0.958
 446      -0.294    -0.227    -0.453      -0.148
 447      -0.031     0.027     0.032       1.798
 448       0.006     0.003    -0.034       0.077
 449      -0.011     0.010     0.013       1.598
 450       0.002    -0.000    -0.010       0.195
 451      -0.005     0.002     0.005       1.411
 452       0.018     0.014    -0.019       0.211
 453       0.019    -0.003     0.023      -0.946
 454       0.090    -0.035     0.110      -1.137
 455       0.088     0.052     0.109      -0.335
 456       0.061     0.021     0.069      -0.581
 457       0.013     0.010    -0.022       0.157
 458       0.003     0.000    -0.011       0.266
 459       0.006     0.002    -0.007       0.583
 460       0.008    -0.007     0.010      -1.492
 461      -0.001     0.001    -0.014      -0.111
 462       0.028     0.023    -0.032       0.164
 463       0.020    -0.014     0.022      -1.581
 464       0.017     0.013    -0.018       0.200
 465       0.017    -0.004     0.021      -0.997
 466       0.005     0.003    -0.005       0.308
 467       0.002     0.000    -0.006       0.346
 468       0.004     0.002    -0.005       0.427
 469       0.003     0.002    -0.004       0.323
 470      -0.010     0.007     0.013       1.281
 471       0.005    -0.001    -0.014       0.397
 472       0.004     0.003    -0.010       0.124
 473      -0.005     0.004     0.006       1.488
 474      -0.003     0.001     0.003       1.128
 475      -0.002     0.001     0.002       1.224
 476      -0.002     0.000     0.002       1.213
 477      -0.003     0.000     0.004       0.858
 478       0.006    -0.001    -0.006       1.187
 479       0.008     0.005    -0.012       0.211
 480      -0.004     0.000     0.004       0.901
 481       0.007     0.005    -0.008       0.241
 482      -0.001     0.000     0.002       0.981
 483      -0.002     0.000     0.004       0.617
 484       0.002     0.001    -0.002       0.407
 485       0.005     0.003    -0.006       0.307
 486       0.007    -0.000    -0.008       0.858
 487      -0.014     0.012     0.014       1.842
 488       0.004     0.000    -0.004       0.894
 489       0.007     0.005    -0.009       0.218
 490       0.002     0.000    -0.002       0.701
 491      -0.003    -0.000     0.004       0.726
 492       0.005     0.001    -0.006       0.659
 493       0.018    -0.005     0.022      -1.028
 494      -0.023    -0.015    -0.052      -0.162
 495       0.089    -0.002     0.096      -0.953
 496       0.006     0.002    -0.010       0.352
 497      -0.018     0.018     0.019       1.905
 498       0.003     0.001    -0.004       0.513
 499       0.004     0.002    -0.007       0.210
 500       0.004    -0.004    -0.014       0.564
 501       0.014     0.012    -0.022       0.084
 502      -0.022     0.022     0.024       1.843
 503       1.152     0.925     1.212      -0.188
 504      -0.023    -0.016    -0.052      -0.137
 505       0.087    -0.004     0.095      -0.954
 506       0.004    -0.001    -0.007       0.709
 507       0.007     0.005    -0.010       0.131
 508       0.005     0.000    -0.008       0.596
 509       0.020    -0.005     0.022      -1.099
 510       0.015     0.014    -0.019       0.064
 511       0.135     0.049     0.167      -0.517
 512      -0.012     0.010     0.015       1.477
 513       0.138     0.045     0.146      -0.637
 514      -0.004     0.001     0.005       0.985
 515       0.007     0.006    -0.009       0.161
 516       0.002     0.001    -0.003       0.455
 517       0.006     0.004    -0.007       0.300
 518       0.005    -0.001    -0.014       0.455
 519       0.021    -0.014     0.024      -1.424
 520      -0.004     0.002    -0.015      -0.372
 521       0.016     0.016    -0.018       0.007
 522       0.002     0.001    -0.003       0.445
 523       0.004    -0.004     0.006      -1.295
 524      -0.001     0.000     0.002       0.935
 525      -0.003    -0.000     0.003       0.682
 526       0.003    -0.001    -0.006       0.678
 527       0.006     0.005    -0.008       0.219
 528      -0.006    -0.001     0.006       0.857
 529       0.010     0.007    -0.011       0.251
 530      -0.001     0.000     0.002       1.142
 531      -0.003    -0.000     0.004       0.781
 532       0.002     0.001    -0.003       0.369
 533      -0.004     0.004     0.005       1.530
 534       0.004    -0.004     0.009      -0.978
 535       0.014     0.013    -0.020       0.047
 536       0.008     0.001    -0.011       0.611
 537       0.019     0.017    -0.020       0.097
 538       0.002     0.001    -0.003       0.300
 539       0.005     0.003    -0.007       0.345
 540       0.004    -0.000    -0.005       0.857
 541       0.005     0.004    -0.010       0.065
 542      -0.012     0.010     0.015       1.474
 543       0.135     0.043     0.143      -0.643
 544       0.018    -0.013     0.023      -1.319
 545       0.102    -0.024     0.119      -1.060
 546       0.005     0.001    -0.008       0.577
 547      -0.012     0.012     0.012       1.912
 548      -0.005     0.000     0.005       1.024
 549       0.008     0.006    -0.010       0.150
 550       0.013     0.010    -0.015       0.231
 551       0.151     0.060     0.156      -0.585
 552       0.023    -0.022     0.025      -1.823
 553       1.168     0.938     1.229      -0.187
 554      -0.004     0.004     0.010       0.792
 555       0.016     0.014    -0.020       0.118
 556       0.003     0.001    -0.004       0.676
 557       0.006     0.004    -0.006       0.204
 558       0.005     0.001    -0.012       0.305
 559       0.019    -0.013     0.022      -1.446
 560       0.014     0.009    -0.016       0.312
 561       0.153     0.059     0.156      -0.601
 562       0.005     0.001    -0.006       0.687
 563       0.016    -0.007     0.020      -1.104
 564       0.001     0.000    -0.002       0.683
 565      -0.003    -0.000     0.003       0.759
 566      -0.004     0.000     0.004       0.971
 567      -0.007     0.006     0.009       1.574
 568       0.007    -0.001    -0.008       0.864
 569       0.020    -0.007     0.024      -1.111
 570       0.002     0.001    -0.002       0.414
 571      -0.006     0.004     0.006       1.537
 572       0.650     0.562     0.767      -0.114
 573      -0.241    -0.036     0.400       0.512
 574     -14.802   -14.756   -25.709      -0.002
 575     -14.996   -14.950   -26.141      -0.002
 576       0.609     0.529     0.726      -0.110
 ---------------------------------------------------------------------



--------------------------------------------------------------------------------------------------------


     LOOP+:  cpu time 1255.3920: real time 1259.1547
    4ORBIT:  cpu time    0.0000: real time    0.0000

 total amount of memory used by VASP MPI-rank0   238701. kBytes
=======================================================================

   base      :      30000. kBytes
   nonlr-proj:       9224. kBytes
   fftplans  :      15014. kBytes
   grid      :      46644. kBytes
   one-center:        294. kBytes
   wavefun   :     137525. kBytes
 
  
  
 General timing and accounting informations for this job:
 ========================================================
  
                  Total CPU time used (sec):     1287.815
                            User time (sec):     1286.566
                          System time (sec):        1.249
                         Elapsed time (sec):     1293.595
  
                   Maximum memory used (kb):      432336.
                   Average memory used (kb):          N/A
  
                          Minor page faults:       242077
                          Major page faults:            0
                 Voluntary context switches:        13391
