 vasp.6.2.0 18Jan21 (build Apr 30 2021 19:00:08) gamma-only                     
  
 executed on             LinuxIFC date 2022.12.30  12:36:40
 running on   24 total cores
 distrk:  each k-point on   24 cores,    1 groups
 distr:  one band on NCORE=   6 cores,    4 groups


--------------------------------------------------------------------------------------------------------


 INCAR:
   SYSTEM = Diamond
   PREC = Normal
   ISTART = 0
   ICHARG = 11
   ISPIN = 2
   MAGMOM = 572*0.0 1*2.0 2*2.0 1*3
   NPAR = 4
   NELECT = 2303
   LHYPERFINE = T
   LEFG = T
   ENCUT = 700
   NELM = 1000
   NELMIN = 4
   EDIFF = 1E-06
   LREAL = Auto
   ALGO = Normal
   EDIFFG = -1E-02
   NSW = 0
   IBRION = 2
   ISIF = 2
   ISYM = 2
   POTIM = 0.5
   ISMEAR = 0
   SIGMA = 0.05
   NEDOS = 1000
   LWAVE = F
   LCHARG = F
   LVHAR = F
   LELF = F

 POTCAR:    PAW_PBE C 08Apr2002                   
 POTCAR:    PAW_PBE H 15Jun2001                   
 POTCAR:    PAW_PBE C 08Apr2002                   
 POTCAR:    PAW_PBE N 08Apr2002                   
 POTCAR:    PAW_PBE C 08Apr2002                   
   VRHFIN =C: s2p2                                                                                  
   LEXCH  = PE                                                                                      
   EATOM  =   147.1560 eV,   10.8157 Ry                                                             
                                                                                                    
   TITEL  = PAW_PBE C 08Apr2002                                                                     
   LULTRA =        F    use ultrasoft PP ?                                                          
   IUNSCR =        1    unscreen: 0-lin 1-nonlin 2-no                                               
   RPACOR =    1.200    partial core radius                                                         
   POMASS =   12.011; ZVAL   =    4.000    mass and valenz                                          
   RCORE  =    1.500    outmost cutoff radius                                                       
   RWIGS  =    1.630; RWIGS  =    0.863    wigner-seitz radius (au A)                               
   ENMAX  =  400.000; ENMIN  =  300.000 eV                                                          
   ICORE  =        2    local potential                                                             
   LCOR   =        T    correct aug charges                                                         
   LPAW   =        T    paw PP                                                                      
   EAUG   =  644.873                                                                                
   DEXC   =    0.000                                                                                
   RMAX   =    1.529    core radius for proj-oper                                                   
   RAUG   =    1.300    factor for augmentation sphere                                              
   RDEP   =    1.501    radius for radial grids                                                     
   RDEPT  =    1.300    core radius for aug-charge                                                  
                                                                                                    
   Atomic configuration                                                                             
    4 entries                                                                                       
     n  l   j            E        occ.                                                              
     1  0  0.50      -273.3789   2.0000                                                             
     2  0  0.50       -13.7508   2.0000                                                             
     2  1  0.50        -5.2854   2.0000                                                             
     3  2  1.50        -5.4423   0.0000                                                             
   Description                                                                                      
     l       E           TYP  RCUT    TYP  RCUT                                                     
     0    -13.7508458     23  1.200                                                                 
     0     -8.2022199     23  1.200                                                                 
     1     -5.2854383     23  1.500                                                                 
     1     34.0145650     23  1.500                                                                 
     2     -5.4423304      7  1.500                                                                 
  local pseudopotential read in
  partial core-charges read in
  partial kinetic energy density read in
  atomic valenz-charges read in
  non local Contribution for L=           0  read in
    real space projection operators read in
  non local Contribution for L=           0  read in
    real space projection operators read in
  non local Contribution for L=           1  read in
    real space projection operators read in
  non local Contribution for L=           1  read in
    real space projection operators read in
    PAW grid and wavefunctions read in
 
   number of l-projection  operators is LMAX  =           4
   number of lm-projection operators is LMMAX =           8
 
 POTCAR:    PAW_PBE H 15Jun2001                   
   VRHFIN =H: ultrasoft test                                                                        
   LEXCH  = PE                                                                                      
   EATOM  =    12.4884 eV,    0.9179 Ry                                                             
                                                                                                    
   TITEL  = PAW_PBE H 15Jun2001                                                                     
   LULTRA =        F    use ultrasoft PP ?                                                          
   IUNSCR =        0    unscreen: 0-lin 1-nonlin 2-no                                               
   RPACOR =    0.000    partial core radius                                                         
   POMASS =    1.000; ZVAL   =    1.000    mass and valenz                                          
   RCORE  =    1.100    outmost cutoff radius                                                       
   RWIGS  =    0.700; RWIGS  =    0.370    wigner-seitz radius (au A)                               
   ENMAX  =  250.000; ENMIN  =  200.000 eV                                                          
   RCLOC  =    0.701    cutoff for local pot                                                        
   LCOR   =        T    correct aug charges                                                         
   LPAW   =        T    paw PP                                                                      
   EAUG   =  400.000                                                                                
   RMAX   =    1.123    core radius for proj-oper                                                   
   RAUG   =    1.200    factor for augmentation sphere                                              
   RDEP   =    1.112    radius for radial grids                                                     
   RDEPT  =    0.926    core radius for aug-charge                                                  
                                                                                                    
   Atomic configuration                                                                             
    2 entries                                                                                       
     n  l   j            E        occ.                                                              
     1  0  0.50        -6.4927   1.0000                                                             
     2  1  0.50        -3.4015   0.0000                                                             
   Description                                                                                      
     l       E           TYP  RCUT    TYP  RCUT                                                     
     0     -6.4927494     23  1.100                                                                 
     0      6.8029130     23  1.100                                                                 
     1     -4.0817478     23  1.100                                                                 
  local pseudopotential read in
  atomic valenz-charges read in
  non local Contribution for L=           0  read in
    real space projection operators read in
  non local Contribution for L=           0  read in
    real space projection operators read in
  non local Contribution for L=           1  read in
    real space projection operators read in
    PAW grid and wavefunctions read in
 
   number of l-projection  operators is LMAX  =           3
   number of lm-projection operators is LMMAX =           5
 
 POTCAR:    PAW_PBE C 08Apr2002                   
   VRHFIN =C: s2p2                                                                                  
   LEXCH  = PE                                                                                      
   EATOM  =   147.1560 eV,   10.8157 Ry                                                             
                                                                                                    
   TITEL  = PAW_PBE C 08Apr2002                                                                     
   LULTRA =        F    use ultrasoft PP ?                                                          
   IUNSCR =        1    unscreen: 0-lin 1-nonlin 2-no                                               
   RPACOR =    1.200    partial core radius                                                         
   POMASS =   12.011; ZVAL   =    4.000    mass and valenz                                          
   RCORE  =    1.500    outmost cutoff radius                                                       
   RWIGS  =    1.630; RWIGS  =    0.863    wigner-seitz radius (au A)                               
   ENMAX  =  400.000; ENMIN  =  300.000 eV                                                          
   ICORE  =        2    local potential                                                             
   LCOR   =        T    correct aug charges                                                         
   LPAW   =        T    paw PP                                                                      
   EAUG   =  644.873                                                                                
   DEXC   =    0.000                                                                                
   RMAX   =    1.529    core radius for proj-oper                                                   
   RAUG   =    1.300    factor for augmentation sphere                                              
   RDEP   =    1.501    radius for radial grids                                                     
   RDEPT  =    1.300    core radius for aug-charge                                                  
                                                                                                    
   Atomic configuration                                                                             
    4 entries                                                                                       
     n  l   j            E        occ.                                                              
     1  0  0.50      -273.3789   2.0000                                                             
     2  0  0.50       -13.7508   2.0000                                                             
     2  1  0.50        -5.2854   2.0000                                                             
     3  2  1.50        -5.4423   0.0000                                                             
   Description                                                                                      
     l       E           TYP  RCUT    TYP  RCUT                                                     
     0    -13.7508458     23  1.200                                                                 
     0     -8.2022199     23  1.200                                                                 
     1     -5.2854383     23  1.500                                                                 
     1     34.0145650     23  1.500                                                                 
     2     -5.4423304      7  1.500                                                                 
  local pseudopotential read in
  partial core-charges read in
  partial kinetic energy density read in
  atomic valenz-charges read in
  non local Contribution for L=           0  read in
    real space projection operators read in
  non local Contribution for L=           0  read in
    real space projection operators read in
  non local Contribution for L=           1  read in
    real space projection operators read in
  non local Contribution for L=           1  read in
    real space projection operators read in
    PAW grid and wavefunctions read in
 
   number of l-projection  operators is LMAX  =           4
   number of lm-projection operators is LMMAX =           8
 
 POTCAR:    PAW_PBE N 08Apr2002                   
   VRHFIN =N: s2p3                                                                                  
   LEXCH  = PE                                                                                      
   EATOM  =   264.5486 eV,   19.4438 Ry                                                             
                                                                                                    
   TITEL  = PAW_PBE N 08Apr2002                                                                     
   LULTRA =        F    use ultrasoft PP ?                                                          
   IUNSCR =        1    unscreen: 0-lin 1-nonlin 2-no                                               
   RPACOR =    1.200    partial core radius                                                         
   POMASS =   14.001; ZVAL   =    5.000    mass and valenz                                          
   RCORE  =    1.500    outmost cutoff radius                                                       
   RWIGS  =    1.400; RWIGS  =    0.741    wigner-seitz radius (au A)                               
   ENMAX  =  400.000; ENMIN  =  300.000 eV                                                          
   ICORE  =        2    local potential                                                             
   LCOR   =        T    correct aug charges                                                         
   LPAW   =        T    paw PP                                                                      
   EAUG   =  627.112                                                                                
   DEXC   =    0.000                                                                                
   RMAX   =    1.529    core radius for proj-oper                                                   
   RAUG   =    1.300    factor for augmentation sphere                                              
   RDEP   =    1.514    radius for radial grids                                                     
   RDEPT  =    1.338    core radius for aug-charge                                                  
                                                                                                    
   Atomic configuration                                                                             
    4 entries                                                                                       
     n  l   j            E        occ.                                                              
     1  0  0.50      -384.7179   2.0000                                                             
     2  0  0.50       -18.5828   2.0000                                                             
     2  1  0.50        -7.0898   3.0000                                                             
     3  2  1.50        -6.8029   0.0000                                                             
   Description                                                                                      
     l       E           TYP  RCUT    TYP  RCUT                                                     
     0    -18.5828119     23  1.200                                                                 
     0    -13.5018863     23  1.200                                                                 
     1     -7.0897853     23  1.500                                                                 
     1      9.5240782     23  1.500                                                                 
     2     -6.8029130      7  1.500                                                                 
  local pseudopotential read in
  partial core-charges read in
  partial kinetic energy density read in
  atomic valenz-charges read in
  non local Contribution for L=           0  read in
    real space projection operators read in
  non local Contribution for L=           0  read in
    real space projection operators read in
  non local Contribution for L=           1  read in
    real space projection operators read in
  non local Contribution for L=           1  read in
    real space projection operators read in
    PAW grid and wavefunctions read in
 
   number of l-projection  operators is LMAX  =           4
   number of lm-projection operators is LMMAX =           8
 
 Optimization of the real space projectors (new method)

 maximal supplied QI-value         = 25.13
 optimisation between [QCUT,QGAM] = [ 13.32, 26.89] = [ 49.69,202.52] Ry 
 Optimized for a Real-space Cutoff    1.01 Angstroem

   l    n(q)    QCUT    max X(q) W(low)/X(q) W(high)/X(q)  e(spline) 
   0      8    13.321   115.676    0.29E-03    0.42E-03    0.11E-06
   0      8    13.321    87.132    0.29E-03    0.42E-03    0.11E-06
   1      8    13.321     4.429    0.39E-03    0.33E-03    0.98E-07
   1      8    13.321     2.733    0.30E-03    0.26E-03    0.97E-07
 Optimization of the real space projectors (new method)

 maximal supplied QI-value         = 34.20
 optimisation between [QCUT,QGAM] = [ 13.34, 27.02] = [ 49.83,204.46] Ry 
 Optimized for a Real-space Cutoff    0.93 Angstroem

   l    n(q)    QCUT    max X(q) W(low)/X(q) W(high)/X(q)  e(spline) 
   0      7    13.340    19.460    0.47E-03    0.72E-04    0.17E-06
   0      7    13.340    12.209    0.45E-03    0.63E-04    0.16E-06
   1      7    13.340     4.655    0.21E-03    0.61E-03    0.12E-06
 Optimization of the real space projectors (new method)

 maximal supplied QI-value         = 25.13
 optimisation between [QCUT,QGAM] = [ 13.32, 26.89] = [ 49.69,202.52] Ry 
 Optimized for a Real-space Cutoff    1.01 Angstroem

   l    n(q)    QCUT    max X(q) W(low)/X(q) W(high)/X(q)  e(spline) 
   0      8    13.321   115.676    0.29E-03    0.42E-03    0.11E-06
   0      8    13.321    87.132    0.29E-03    0.42E-03    0.11E-06
   1      8    13.321     4.429    0.39E-03    0.33E-03    0.98E-07
   1      8    13.321     2.733    0.30E-03    0.26E-03    0.97E-07
 Optimization of the real space projectors (new method)

 maximal supplied QI-value         = 25.13
 optimisation between [QCUT,QGAM] = [ 13.32, 26.89] = [ 49.69,202.52] Ry 
 Optimized for a Real-space Cutoff    1.01 Angstroem

   l    n(q)    QCUT    max X(q) W(low)/X(q) W(high)/X(q)  e(spline) 
   0      8    13.321    79.467    0.28E-03    0.38E-03    0.11E-06
   0      8    13.321    66.151    0.27E-03    0.38E-03    0.11E-06
   1      8    13.321    23.070    0.40E-03    0.78E-03    0.29E-06
   1      8    13.321    16.668    0.40E-03    0.79E-03    0.30E-06
  PAW_PBE C 08Apr2002                   :
 energy of atom  1       EATOM= -147.1560
 kinetic energy error for atom=    0.0032 (will be added to EATOM!!)
  PAW_PBE H 15Jun2001                   :
 energy of atom  2       EATOM=  -12.4884
 kinetic energy error for atom=    0.0002 (will be added to EATOM!!)
  PAW_PBE C 08Apr2002                   :
 energy of atom  3       EATOM= -147.1560
 kinetic energy error for atom=    0.0032 (will be added to EATOM!!)
  PAW_PBE N 08Apr2002                   :
 energy of atom  4       EATOM= -264.5486
 kinetic energy error for atom=    0.0061 (will be added to EATOM!!)
 
 
 POSCAR: Autosave
  positions in direct lattice
  velocities in cartesian coordinates
 exchange correlation table for  LEXCH =        8
   RHO(1)=    0.500       N(1)  =     2000
   RHO(2)=  100.500       N(2)  =     4000
 


--------------------------------------------------------------------------------------------------------


 ion  position               nearest neighbor table
   1  0.000  0.000  0.000- 285 1.55 475 1.55 381 1.55 435 1.55
   2  1.000  0.000  0.500- 286 1.55 474 1.55 380 1.55 434 1.55
   3  1.000  0.250  0.000- 287 1.55 469 1.55 383 1.55 429 1.55
   4  1.000  0.250  0.500- 288 1.55 468 1.55 382 1.55 428 1.55
   5  1.000  0.500  0.000- 289 1.55 431 1.55 471 1.55 385 1.55
   6  1.000  0.500  0.500- 384 1.55 290 1.55 470 1.55 430 1.55
   7  0.000  0.750  0.000- 473 1.55 291 1.55 433 1.55 387 1.55
   8  0.000  0.750  0.500- 472 1.55 292 1.55 386 1.55 432 1.55
   9  0.167  1.000  0.000- 435 1.55 293 1.55 389 1.55 443 1.55
  10  0.167  1.000  0.500- 434 1.55 294 1.55 388 1.55 442 1.55
  11  0.167  0.250  1.000- 429 1.55 295 1.55 391 1.55 437 1.55
  12  0.167  0.250  0.500- 428 1.55 296 1.55 390 1.55 436 1.55
  13  0.167  0.500  0.000- 297 1.55 431 1.55 439 1.55 393 1.55
  14  0.167  0.500  0.500- 430 1.55 392 1.55 298 1.55 438 1.55
  15  0.167  0.750  0.000- 433 1.55 299 1.55 441 1.55 395 1.55
  16  0.167  0.750  0.500- 300 1.55 432 1.55 394 1.55 440 1.55
  17  0.333  1.000  0.000- 397 1.55 301 1.55 443 1.55 451 1.55
  18  0.333  1.000  0.500- 302 1.55 442 1.55 450 1.55 396 1.55
  19  0.333  0.250  0.000- 303 1.55 399 1.55 445 1.55 437 1.55
  20  0.333  0.250  0.500- 436 1.55 444 1.55 304 1.55 398 1.55
  21  0.333  0.500  1.000- 305 1.54 439 1.55 401 1.55 447 1.55
  22  0.334  0.500  0.500- 400 1.54 438 1.55 446 1.55 306 1.55
  23  0.333  0.750  1.000- 307 1.55 403 1.55 441 1.55 449 1.55
  24  0.333  0.750  0.500- 308 1.55 440 1.55 402 1.55 448 1.55
  25  0.500  1.000  0.000- 309 1.55 405 1.55 459 1.55 451 1.55
  26  0.500  1.000  0.500- 310 1.55 458 1.55 450 1.55 404 1.55
  27  0.500  0.250  0.000- 407 1.54 311 1.54 453 1.55 445 1.55
  28  0.500  0.250  0.500- 312 1.55 452 1.55 444 1.55 406 1.55
  29  0.500  0.500  0.999- 409 1.54 455 1.54 313 1.55 447 1.55
  30  0.500  0.750  1.000- 314 1.55 411 1.55 457 1.55 449 1.55
  31  0.500  0.750  0.500- 315 1.54 456 1.55 448 1.55 410 1.55
  32  0.667  1.000  0.000- 316 1.55 413 1.55 459 1.55 467 1.55
  33  0.667  0.000  0.500- 317 1.55 466 1.55 458 1.55 412 1.55
  34  0.667  0.250  1.000- 318 1.55 461 1.55 453 1.55 415 1.55
  35  0.667  0.250  0.500- 319 1.55 452 1.55 460 1.55 414 1.55
  36  0.667  0.500  1.000- 320 1.55 463 1.55 417 1.55 455 1.55
  37  0.666  0.501  0.500- 416 1.54 454 1.55 462 1.55 321 1.56
  38  0.667  0.750  1.000- 322 1.55 419 1.55 465 1.55 457 1.55
  39  0.667  0.750  0.500- 323 1.55 418 1.55 464 1.55 456 1.55
  40  0.833  0.000  0.000- 324 1.55 475 1.55 467 1.55 421 1.55
  41  0.833  0.000  0.500- 325 1.55 474 1.55 420 1.55 466 1.55
  42  0.833  0.250  1.000- 469 1.55 326 1.55 461 1.55 423 1.55
  43  0.833  0.250  0.500- 327 1.55 460 1.55 422 1.55 468 1.55
  44  0.833  0.500  1.000- 471 1.55 328 1.55 425 1.55 463 1.55
  45  0.833  0.500  0.500- 329 1.55 470 1.55 424 1.55 462 1.55
  46  0.833  0.750  0.000- 465 1.55 330 1.55 427 1.55 473 1.55
  47  0.833  0.750  0.500- 426 1.55 472 1.55 331 1.55 464 1.55
  48  0.083  0.125  0.000- 381 1.55 332 1.55 429 1.55 389 1.55
  49  0.083  0.125  0.500- 380 1.55 333 1.55 428 1.55 388 1.55
  50  0.083  0.375  1.000- 334 1.55 383 1.55 431 1.55 391 1.55
  51  0.083  0.375  0.500- 335 1.55 382 1.55 430 1.55 390 1.55
  52  0.083  0.625  0.000- 393 1.55 385 1.55 336 1.55 433 1.55
  53  0.083  0.625  0.500- 384 1.55 337 1.55 432 1.55 392 1.55
  54  0.083  0.875  0.000- 387 1.55 338 1.55 435 1.55 395 1.55
  55  0.083  0.875  0.500- 386 1.55 339 1.55 434 1.55 394 1.55
  56  0.250  0.125  0.000- 340 1.55 437 1.55 389 1.55 397 1.55
  57  0.250  0.125  0.500- 388 1.55 341 1.55 396 1.55 436 1.55
  58  0.250  0.375  1.000- 342 1.54 391 1.55 439 1.55 399 1.55
  59  0.250  0.375  0.500- 398 1.55 438 1.55 343 1.55 390 1.55
  60  0.250  0.625  0.000- 401 1.54 344 1.54 441 1.55 393 1.55
  61  0.250  0.625  0.500- 345 1.55 440 1.55 392 1.55 400 1.55
  62  0.250  0.875  1.000- 443 1.55 346 1.55 395 1.55 403 1.55
  63  0.250  0.875  0.500- 347 1.55 394 1.55 442 1.55 402 1.55
  64  0.417  0.125  0.000- 445 1.55 348 1.55 405 1.55 397 1.55
  65  0.417  0.125  0.500- 349 1.55 404 1.55 396 1.55 444 1.55
  66  0.417  0.375  1.000- 350 1.54 399 1.55 407 1.55 447 1.55
  67  0.417  0.375  0.500- 406 1.54 398 1.55 446 1.55 351 1.55
  68  0.417  0.625  0.999- 449 1.55 352 1.55 401 1.55 409 1.55
  69  0.417  0.624  0.500- 400 1.54 408 1.55 448 1.55 353 1.55
  70  0.417  0.875  1.000- 451 1.55 354 1.55 411 1.55 403 1.55
  71  0.417  0.875  0.500- 355 1.55 410 1.55 402 1.55 450 1.55
  72  0.583  0.125  0.000- 453 1.55 356 1.55 413 1.55 405 1.55
  73  0.583  0.125  0.500- 357 1.55 412 1.55 404 1.55 452 1.55
  74  0.583  0.375  0.999- 415 1.55 358 1.55 407 1.55 455 1.55
  75  0.583  0.376  0.500- 406 1.54 454 1.55 414 1.55 359 1.55
  76  0.583  0.625  1.000- 360 1.55 457 1.55 417 1.55 409 1.55
  77  0.584  0.624  0.500- 416 1.54 408 1.55 456 1.55 361 1.56
  78  0.583  0.875  1.000- 459 1.55 362 1.55 411 1.55 419 1.55
  79  0.583  0.875  0.500- 363 1.55 418 1.55 410 1.55 458 1.55
  80  0.750  0.125  1.000- 364 1.55 421 1.55 413 1.55 461 1.55
  81  0.750  0.125  0.500- 365 1.55 412 1.55 420 1.55 460 1.55
  82  0.750  0.375  1.000- 366 1.54 423 1.55 463 1.55 415 1.55
  83  0.750  0.375  0.500- 367 1.54 462 1.55 414 1.55 422 1.55
  84  0.750  0.625  0.000- 417 1.54 368 1.54 425 1.55 465 1.55
  85  0.750  0.625  0.500- 464 1.55 424 1.55 369 1.55 416 1.55
  86  0.750  0.875  0.000- 370 1.55 467 1.55 419 1.55 427 1.55
  87  0.750  0.875  0.500- 466 1.55 371 1.55 426 1.55 418 1.55
  88  0.917  0.125  1.000- 372 1.55 469 1.55 421 1.55 381 1.55
  89  0.917  0.125  0.500- 373 1.55 420 1.55 468 1.55 380 1.55
  90  0.917  0.375  1.000- 383 1.55 374 1.55 471 1.55 423 1.55
  91  0.917  0.375  0.500- 375 1.55 470 1.55 422 1.55 382 1.55
  92  0.917  0.625  0.000- 425 1.54 376 1.55 385 1.55 473 1.55
  93  0.917  0.625  0.500- 384 1.55 472 1.55 377 1.55 424 1.55
  94  0.917  0.875  0.000- 427 1.55 378 1.55 475 1.55 387 1.55
  95  0.917  0.875  0.500- 474 1.55 379 1.55 426 1.55 386 1.55
  96  1.000  0.083  0.333- 380 1.55 476 1.55 564 1.55 524 1.55
  97  1.000  0.083  0.833- 565 1.55 477 1.55 381 1.55 525 1.55
  98  1.000  0.333  0.333- 382 1.55 478 1.55 566 1.55 526 1.55
  99  1.000  0.333  0.833- 383 1.55 567 1.55 479 1.55 527 1.55
 100  0.000  0.583  0.333- 384 1.55 528 1.55 480 1.55 568 1.55
 101  0.000  0.583  0.833- 569 1.54 529 1.55 385 1.55 481 1.55
 102  0.000  0.833  0.333- 386 1.55 482 1.55 570 1.55 530 1.55
 103  0.000  0.833  0.833- 571 1.55 483 1.55 387 1.55 531 1.55
 104  0.167  0.083  0.333- 388 1.55 524 1.55 484 1.55 532 1.55
 105  0.167  0.083  0.833- 525 1.55 485 1.55 389 1.55 533 1.55
 106  0.167  0.333  0.333- 390 1.55 526 1.55 486 1.55 534 1.55
 107  0.167  0.333  0.833- 527 1.55 391 1.55 487 1.55 535 1.55
 108  0.167  0.583  0.333- 392 1.55 528 1.55 536 1.55 488 1.55
 109  0.167  0.583  0.833- 537 1.55 529 1.55 393 1.55 489 1.55
 110  0.167  0.833  0.333- 394 1.55 530 1.55 490 1.55 538 1.55
 111  0.167  0.833  0.833- 531 1.55 491 1.55 395 1.55 539 1.55
 112  0.333  0.083  0.333- 396 1.55 532 1.55 540 1.55 492 1.55
 113  0.333  0.083  0.833- 493 1.55 397 1.55 533 1.55 541 1.55
 114  0.333  0.333  0.333- 534 1.55 542 1.55 494 1.55 398 1.55
 115  0.333  0.333  0.833- 399 1.54 535 1.55 543 1.55 495 1.55
 116  0.333  0.583  0.333- 496 1.55 536 1.55 544 1.55 400 1.55
 117  0.333  0.583  0.835- 401 1.54 497 1.55 537 1.55 545 1.55
 118  0.333  0.833  0.333- 546 1.55 402 1.55 538 1.55 498 1.55
 119  0.333  0.833  0.833- 499 1.55 403 1.55 539 1.55 547 1.55
 120  0.500  0.083  0.333- 404 1.55 500 1.55 548 1.55 540 1.55
 121  0.500  0.083  0.833- 405 1.55 549 1.55 501 1.55 541 1.55
 122  0.500  0.333  0.333- 550 1.55 542 1.55 502 1.55 406 1.55
 123  0.500  0.333  0.835- 407 1.54 551 1.55 543 1.55 503 1.55
 124  0.500  0.584  0.332- 504 1.54 408 1.54 552 1.55 544 1.55
 125  0.500  0.583  0.831- 505 1.54 545 1.55 409 1.56 553 1.56
 126  0.500  0.833  0.333- 554 1.55 410 1.55 546 1.55 506 1.55
 127  0.500  0.833  0.833- 411 1.55 507 1.55 555 1.55 547 1.55
 128  0.667  0.083  0.333- 412 1.55 548 1.55 556 1.55 508 1.55
 129  0.667  0.083  0.833- 413 1.55 557 1.55 509 1.55 549 1.55
 130  0.667  0.333  0.333- 550 1.55 558 1.55 510 1.55 414 1.55
 131  0.667  0.333  0.833- 415 1.54 559 1.55 551 1.55 511 1.55
 132  0.667  0.583  0.333- 512 1.54 560 1.54 552 1.55 416 1.55
 133  0.667  0.584  0.834- 417 1.54 553 1.55 561 1.55 513 1.55
 134  0.667  0.833  0.333- 418 1.55 554 1.55 514 1.55 562 1.55
 135  0.667  0.833  0.833- 515 1.55 419 1.55 563 1.55 555 1.55
 136  0.833  0.083  0.333- 420 1.55 516 1.55 556 1.55 564 1.55
 137  0.833  0.083  0.833- 421 1.55 557 1.55 565 1.55 517 1.55
 138  0.833  0.333  0.333- 518 1.55 558 1.55 422 1.55 566 1.55
 139  0.833  0.333  0.833- 423 1.55 567 1.55 559 1.55 519 1.55
 140  0.833  0.583  0.333- 568 1.55 424 1.55 520 1.55 560 1.55
 141  0.834  0.583  0.834- 561 1.54 569 1.55 425 1.55 521 1.55
 142  0.833  0.833  0.333- 426 1.55 522 1.55 570 1.55 562 1.55
 143  0.833  0.833  0.833- 563 1.54 523 1.55 427 1.55 571 1.55
 144  0.083  0.208  0.333- 428 1.55 476 1.55 526 1.55 484 1.55
 145  0.083  0.208  0.833- 477 1.55 429 1.55 527 1.55 485 1.55
 146  0.083  0.458  0.333- 430 1.55 486 1.55 478 1.55 528 1.55
 147  0.083  0.458  0.833- 487 1.55 431 1.55 479 1.55 529 1.55
 148  0.083  0.708  0.333- 432 1.55 488 1.55 480 1.55 530 1.55
 149  0.083  0.708  0.833- 481 1.55 433 1.55 531 1.55 489 1.55
 150  0.083  0.958  0.333- 434 1.55 482 1.55 524 1.55 490 1.55
 151  0.083  0.958  0.833- 483 1.55 525 1.55 435 1.55 491 1.55
 152  0.250  0.208  0.333- 436 1.55 484 1.55 534 1.55 492 1.55
 153  0.250  0.208  0.833- 485 1.55 437 1.55 535 1.55 493 1.55
 154  0.250  0.458  0.333- 486 1.55 536 1.55 494 1.55 438 1.55
 155  0.250  0.458  0.833- 439 1.54 487 1.55 537 1.55 495 1.55
 156  0.250  0.708  0.333- 488 1.55 440 1.55 538 1.55 496 1.55
 157  0.250  0.708  0.833- 489 1.55 539 1.55 441 1.55 497 1.55
 158  0.250  0.958  0.333- 442 1.55 490 1.55 498 1.55 532 1.55
 159  0.250  0.958  0.833- 533 1.55 491 1.55 443 1.55 499 1.55
 160  0.417  0.208  0.333- 444 1.55 492 1.55 542 1.55 500 1.55
 161  0.417  0.208  0.833- 543 1.55 445 1.55 493 1.55 501 1.55
 162  0.416  0.458  0.332- 446 1.54 494 1.54 544 1.55 502 1.55
 163  0.417  0.458  0.833- 447 1.54 495 1.55 503 1.55 545 1.55
 164  0.417  0.708  0.333- 496 1.55 546 1.55 504 1.55 448 1.55
 165  0.417  0.708  0.833- 449 1.54 547 1.55 497 1.55 505 1.55
 166  0.417  0.958  0.333- 450 1.55 498 1.55 506 1.55 540 1.55
 167  0.417  0.958  0.833- 541 1.55 451 1.55 499 1.55 507 1.55
 168  0.583  0.208  0.333- 508 1.55 452 1.55 500 1.55 550 1.55
 169  0.583  0.208  0.833- 509 1.55 453 1.55 551 1.55 501 1.55
 170  0.584  0.458  0.332- 510 1.54 454 1.54 552 1.55 502 1.55
 171  0.583  0.459  0.831- 511 1.54 503 1.55 455 1.56 553 1.56
 172  0.583  0.708  0.333- 512 1.55 554 1.55 504 1.55 456 1.55
 173  0.583  0.708  0.833- 457 1.54 555 1.55 513 1.55 505 1.55
 174  0.583  0.958  0.333- 458 1.55 514 1.55 548 1.55 506 1.55
 175  0.583  0.958  0.833- 515 1.55 459 1.55 549 1.55 507 1.55
 176  0.750  0.208  0.333- 460 1.55 508 1.55 558 1.55 516 1.55
 177  0.750  0.208  0.833- 461 1.55 517 1.55 509 1.55 559 1.55
 178  0.750  0.458  0.333- 560 1.55 518 1.55 510 1.55 462 1.55
 179  0.750  0.458  0.833- 463 1.54 519 1.55 561 1.55 511 1.55
 180  0.750  0.708  0.333- 562 1.55 464 1.55 520 1.55 512 1.55
 181  0.750  0.709  0.833- 513 1.54 465 1.55 563 1.55 521 1.55
 182  0.750  0.958  0.333- 466 1.55 522 1.55 514 1.55 556 1.55
 183  0.750  0.958  0.833- 467 1.55 557 1.55 523 1.55 515 1.55
 184  0.917  0.208  0.333- 468 1.55 516 1.55 566 1.55 476 1.55
 185  0.917  0.208  0.833- 517 1.55 469 1.55 567 1.55 477 1.55
 186  0.917  0.458  0.333- 470 1.55 518 1.55 568 1.55 478 1.55
 187  0.917  0.458  0.833- 471 1.55 479 1.55 519 1.55 569 1.55
 188  0.917  0.708  0.333- 472 1.55 520 1.55 570 1.55 480 1.55
 189  0.917  0.708  0.833- 521 1.54 473 1.55 571 1.55 481 1.55
 190  0.917  0.958  0.333- 474 1.55 522 1.55 564 1.55 482 1.55
 191  0.917  0.958  0.833- 523 1.55 475 1.55 565 1.55 483 1.55
 192  1.000  0.167  0.167- 476 1.55 372 1.55 287 1.55 332 1.55
 193  1.000  0.167  0.667- 373 1.55 477 1.55 288 1.55 333 1.55
 194  1.000  0.417  0.167- 478 1.55 374 1.55 334 1.55 289 1.55
 195  1.000  0.417  0.667- 479 1.55 335 1.55 375 1.55 290 1.55
 196  0.000  0.667  0.167- 480 1.55 376 1.55 336 1.55 291 1.55
 197  0.000  0.667  0.667- 377 1.54 337 1.55 292 1.55 481 1.55
 198  0.000  0.917  0.167- 378 1.55 482 1.55 285 1.55 338 1.55
 199  0.000  0.917  0.667- 379 1.55 286 1.55 483 1.55 339 1.55
 200  0.167  0.167  0.167- 484 1.55 332 1.55 295 1.55 340 1.55
 201  0.167  0.167  0.667- 333 1.55 485 1.55 296 1.55 341 1.55
 202  0.167  0.417  0.167- 334 1.55 486 1.55 297 1.55 342 1.55
 203  0.166  0.417  0.667- 335 1.54 487 1.55 298 1.55 343 1.55
 204  0.167  0.667  0.167- 488 1.55 344 1.55 336 1.55 299 1.55
 205  0.167  0.667  0.667- 337 1.55 300 1.55 489 1.55 345 1.55
 206  0.167  0.917  0.167- 490 1.55 293 1.55 338 1.55 346 1.55
 207  0.167  0.917  0.667- 294 1.55 339 1.55 491 1.55 347 1.55
 208  0.333  0.167  0.167- 492 1.55 303 1.55 340 1.55 348 1.55
 209  0.333  0.166  0.667- 304 1.54 341 1.54 493 1.55 349 1.55
 210  0.333  0.417  0.166- 494 1.54 342 1.54 305 1.55 350 1.55
 211  0.333  0.417  0.667- 343 1.54 495 1.54 306 1.55 351 1.55
 212  0.333  0.667  0.167- 307 1.55 344 1.55 496 1.55 352 1.55
 213  0.333  0.667  0.667- 308 1.54 497 1.55 345 1.55 353 1.57
 214  0.333  0.917  0.167- 301 1.55 498 1.55 346 1.55 354 1.55
 215  0.333  0.916  0.667- 499 1.55 347 1.55 302 1.55 355 1.55
 216  0.500  0.167  0.167- 311 1.55 500 1.55 356 1.55 348 1.55
 217  0.500  0.167  0.667- 357 1.55 501 1.55 312 1.55 349 1.55
 218  0.500  0.417  0.166- 502 1.54 358 1.55 350 1.55 313 1.55
 219  0.500  0.667  0.166- 504 1.54 314 1.54 360 1.55 352 1.55
 220  0.500  0.665  0.667- 505 1.54 353 1.55 361 1.56 315 1.56
 221  0.500  0.917  0.167- 362 1.55 506 1.55 354 1.55 309 1.55
 222  0.500  0.917  0.667- 507 1.55 363 1.55 355 1.55 310 1.55
 223  0.667  0.167  0.167- 508 1.55 364 1.55 356 1.55 318 1.55
 224  0.667  0.167  0.667- 365 1.55 509 1.55 319 1.55 357 1.55
 225  0.667  0.417  0.166- 510 1.54 366 1.54 320 1.55 358 1.55
 226  0.665  0.418  0.667- 511 1.54 359 1.55 321 1.56 367 1.56
 227  0.667  0.667  0.167- 322 1.55 368 1.55 512 1.55 360 1.55
 228  0.668  0.668  0.667- 323 1.54 361 1.54 369 1.55 513 1.55
 229  0.667  0.917  0.167- 514 1.55 316 1.55 370 1.55 362 1.55
 230  0.667  0.917  0.667- 515 1.55 317 1.55 371 1.55 363 1.55
 231  0.833  0.167  0.167- 516 1.55 326 1.55 364 1.55 372 1.55
 232  0.833  0.167  0.667- 517 1.55 365 1.55 373 1.55 327 1.55
 233  0.833  0.417  0.167- 328 1.55 374 1.55 366 1.55 518 1.55
 234  0.833  0.417  0.667- 519 1.55 329 1.55 375 1.55 367 1.55
 235  0.833  0.667  0.167- 520 1.55 368 1.55 376 1.55 330 1.55
 236  0.834  0.667  0.667- 369 1.54 377 1.55 331 1.55 521 1.55
 237  0.833  0.917  0.167- 522 1.55 324 1.55 370 1.55 378 1.55
 238  0.833  0.917  0.667- 371 1.55 325 1.55 523 1.55 379 1.55
 239  0.083  0.042  0.167- 524 1.55 332 1.55 285 1.55 293 1.55
 240  0.083  0.042  0.667- 286 1.55 333 1.55 525 1.55 294 1.55
 241  0.083  0.292  0.167- 526 1.55 334 1.55 287 1.55 295 1.55
 242  0.083  0.292  0.667- 288 1.55 527 1.55 335 1.55 296 1.55
 243  0.083  0.542  0.167- 528 1.55 297 1.55 289 1.55 336 1.55
 244  0.083  0.542  0.667- 298 1.54 290 1.54 529 1.55 337 1.55
 245  0.083  0.792  0.167- 530 1.55 299 1.55 291 1.55 338 1.55
 246  0.083  0.792  0.667- 292 1.55 339 1.55 300 1.55 531 1.55
 247  0.250  0.042  0.167- 532 1.55 340 1.55 293 1.55 301 1.55
 248  0.250  0.041  0.667- 341 1.54 294 1.55 533 1.55 302 1.55
 249  0.250  0.292  0.167- 295 1.55 534 1.55 342 1.55 303 1.55
 250  0.250  0.291  0.667- 296 1.54 535 1.55 304 1.55 343 1.55
 251  0.250  0.542  0.167- 536 1.55 297 1.55 344 1.55 305 1.55
 252  0.249  0.541  0.667- 298 1.54 345 1.55 537 1.55 306 1.55
 253  0.250  0.792  0.167- 538 1.55 299 1.55 346 1.55 307 1.55
 254  0.250  0.792  0.667- 347 1.55 308 1.55 539 1.55 300 1.55
 255  0.417  0.042  0.167- 540 1.55 348 1.55 301 1.55 309 1.55
 256  0.417  0.042  0.667- 349 1.55 302 1.55 541 1.55 310 1.55
 257  0.417  0.292  0.167- 542 1.55 303 1.55 350 1.55 311 1.55
 258  0.416  0.291  0.667- 304 1.54 312 1.55 543 1.55 351 1.55
 259  0.417  0.542  0.166- 544 1.54 352 1.55 305 1.55 313 1.55
 260  0.417  0.792  0.167- 354 1.55 307 1.55 314 1.55 546 1.55
 261  0.417  0.791  0.667- 547 1.55 308 1.55 355 1.55 315 1.55
 262  0.583  0.042  0.167- 548 1.55 316 1.55 356 1.55 309 1.55
 263  0.583  0.042  0.667- 317 1.55 549 1.55 357 1.55 310 1.55
 264  0.583  0.292  0.166- 318 1.55 311 1.55 550 1.55 358 1.55
 265  0.583  0.292  0.666- 319 1.54 551 1.55 312 1.55 359 1.57
 266  0.583  0.542  0.166- 552 1.54 320 1.55 360 1.55 313 1.55
 267  0.583  0.792  0.167- 322 1.55 362 1.55 314 1.55 554 1.55
 268  0.583  0.792  0.667- 555 1.55 323 1.55 363 1.55 315 1.55
 269  0.750  0.042  0.167- 556 1.55 324 1.55 316 1.55 364 1.55
 270  0.750  0.042  0.667- 365 1.55 325 1.55 557 1.55 317 1.55
 271  0.750  0.292  0.167- 326 1.55 318 1.55 366 1.55 558 1.55
 272  0.750  0.292  0.667- 559 1.54 319 1.55 327 1.55 367 1.55
 273  0.750  0.542  0.167- 328 1.55 368 1.55 560 1.55 320 1.55
 274  0.751  0.542  0.667- 329 1.54 321 1.54 369 1.55 561 1.55
 275  0.750  0.792  0.167- 562 1.55 370 1.55 330 1.55 322 1.55
 276  0.750  0.792  0.667- 323 1.54 371 1.54 563 1.55 331 1.55
 277  0.917  0.042  0.167- 564 1.55 324 1.55 372 1.55 285 1.55
 278  0.917  0.042  0.667- 325 1.55 565 1.55 373 1.55 286 1.55
 279  0.917  0.292  0.167- 326 1.55 374 1.55 566 1.55 287 1.55
 280  0.917  0.292  0.667- 327 1.55 567 1.55 375 1.55 288 1.55
 281  0.917  0.542  0.167- 568 1.55 289 1.55 328 1.55 376 1.55
 282  0.917  0.542  0.667- 329 1.54 290 1.54 569 1.55 377 1.55
 283  0.917  0.792  0.167- 330 1.55 570 1.55 378 1.55 291 1.55
 284  0.917  0.792  0.667- 331 1.54 379 1.55 292 1.55 571 1.55
 285  1.000  0.000  0.125-   1 1.55 239 1.55 198 1.55 277 1.55
 286  1.000  0.000  0.625- 240 1.55   2 1.55 199 1.55 278 1.55
 287  1.000  0.250  0.125-   3 1.55 192 1.55 241 1.55 279 1.55
 288  1.000  0.250  0.625- 242 1.55   4 1.55 193 1.55 280 1.55
 289  1.000  0.500  0.125-   5 1.55 281 1.55 194 1.55 243 1.55
 290  1.000  0.500  0.625- 282 1.54 244 1.54   6 1.55 195 1.55
 291  0.000  0.750  0.125-   7 1.55 245 1.55 283 1.55 196 1.55
 292  0.000  0.750  0.625- 246 1.55   8 1.55 197 1.55 284 1.55
 293  0.167  1.000  0.125-   9 1.55 206 1.55 247 1.55 239 1.55
 294  0.167  1.000  0.625- 248 1.55 207 1.55  10 1.55 240 1.55
 295  0.167  0.250  0.125-  11 1.55 249 1.55 200 1.55 241 1.55
 296  0.167  0.250  0.625- 250 1.54  12 1.55 201 1.55 242 1.55
 297  0.167  0.500  0.125-  13 1.55 243 1.55 251 1.55 202 1.55
 298  0.166  0.500  0.625- 252 1.54 244 1.54  14 1.55 203 1.55
 299  0.167  0.750  0.125-  15 1.55 245 1.55 253 1.55 204 1.55
 300  0.167  0.750  0.625-  16 1.55 254 1.55 246 1.55 205 1.55
 301  0.333  1.000  0.125-  17 1.55 214 1.55 255 1.55 247 1.55
 302  0.333  1.000  0.625-  18 1.55 256 1.55 215 1.55 248 1.55
 303  0.333  0.250  0.125-  19 1.55 257 1.55 208 1.55 249 1.55
 304  0.333  0.249  0.625- 258 1.54 209 1.54  20 1.55 250 1.55
 305  0.333  0.500  0.125-  21 1.54 259 1.55 251 1.55 210 1.55
 306  0.333  0.500  0.626- 575 1.49 211 1.55 252 1.55  22 1.55
 307  0.333  0.750  0.125-  23 1.55 212 1.55 260 1.55 253 1.55
 308  0.333  0.750  0.625- 213 1.54  24 1.55 261 1.55 254 1.55
 309  0.500  1.000  0.125-  25 1.55 221 1.55 255 1.55 262 1.55
 310  0.500  1.000  0.625-  26 1.55 256 1.55 222 1.55 263 1.55
 311  0.500  0.250  0.125-  27 1.54 216 1.55 264 1.55 257 1.55
 312  0.500  0.250  0.625-  28 1.55 217 1.55 258 1.55 265 1.55
 313  0.500  0.500  0.124-  29 1.55 218 1.55 259 1.55 266 1.55
 314  0.500  0.750  0.125- 219 1.54  30 1.55 260 1.55 267 1.55
 315  0.500  0.749  0.625-  31 1.54 268 1.55 261 1.55 220 1.56
 316  0.667  1.000  0.125-  32 1.55 262 1.55 229 1.55 269 1.55
 317  0.667  1.000  0.625-  33 1.55 263 1.55 230 1.55 270 1.55
 318  0.667  0.250  0.125- 264 1.55  34 1.55 271 1.55 223 1.55
 319  0.666  0.250  0.625- 265 1.54  35 1.55 224 1.55 272 1.55
 320  0.667  0.500  0.125-  36 1.55 266 1.55 225 1.55 273 1.55
 321  0.667  0.502  0.627- 576 1.48 274 1.54 226 1.56  37 1.56
 322  0.667  0.750  0.125-  38 1.55 227 1.55 267 1.55 275 1.55
 323  0.667  0.750  0.625- 228 1.54 276 1.54  39 1.55 268 1.55
 324  0.833  0.000  0.125-  40 1.55 277 1.55 237 1.55 269 1.55
 325  0.833  0.000  0.625- 238 1.55 278 1.55  41 1.55 270 1.55
 326  0.833  0.250  0.125- 279 1.55 271 1.55  42 1.55 231 1.55
 327  0.833  0.250  0.625-  43 1.55 280 1.55 232 1.55 272 1.55
 328  0.833  0.500  0.125-  44 1.55 273 1.55 281 1.55 233 1.55
 329  0.834  0.500  0.625- 274 1.54 282 1.54  45 1.55 234 1.55
 330  0.833  0.750  0.125-  46 1.55 283 1.55 275 1.55 235 1.55
 331  0.834  0.750  0.625- 284 1.54 236 1.55  47 1.55 276 1.55
 332  0.083  0.125  0.125-  48 1.55 239 1.55 200 1.55 192 1.55
 333  0.083  0.125  0.625- 201 1.55 240 1.55  49 1.55 193 1.55
 334  0.083  0.375  0.125-  50 1.55 202 1.55 194 1.55 241 1.55
 335  0.083  0.375  0.625- 203 1.54 242 1.55  51 1.55 195 1.55
 336  0.083  0.625  0.125-  52 1.55 196 1.55 243 1.55 204 1.55
 337  0.083  0.625  0.625- 197 1.55  53 1.55 205 1.55 244 1.55
 338  0.083  0.875  0.125-  54 1.55 206 1.55 245 1.55 198 1.55
 339  0.083  0.875  0.625- 207 1.55  55 1.55 246 1.55 199 1.55
 340  0.250  0.125  0.125-  56 1.55 247 1.55 208 1.55 200 1.55
 341  0.250  0.125  0.625- 209 1.54 248 1.54  57 1.55 201 1.55
 342  0.250  0.375  0.125- 210 1.54  58 1.54 249 1.55 202 1.55
 343  0.250  0.375  0.625- 211 1.54  59 1.55 203 1.55 250 1.55
 344  0.250  0.625  0.125-  60 1.54 204 1.55 212 1.55 251 1.55
 345  0.250  0.625  0.625-  61 1.55 205 1.55 252 1.55 213 1.55
 346  0.250  0.875  0.125-  62 1.55 253 1.55 214 1.55 206 1.55
 347  0.250  0.875  0.625- 254 1.55  63 1.55 215 1.55 207 1.55
 348  0.417  0.125  0.125-  64 1.55 255 1.55 216 1.55 208 1.55
 349  0.417  0.125  0.625- 256 1.55  65 1.55 217 1.55 209 1.55
 350  0.417  0.375  0.125-  66 1.54 257 1.55 218 1.55 210 1.55
 351  0.417  0.375  0.626- 574 1.49 211 1.55 258 1.55  67 1.55
 352  0.417  0.625  0.124- 259 1.55  68 1.55 219 1.55 212 1.55
 353  0.417  0.623  0.626- 575 1.51 220 1.55  69 1.55 213 1.57
 354  0.417  0.875  0.125- 260 1.55  70 1.55 221 1.55 214 1.55
 355  0.417  0.875  0.625-  71 1.55 222 1.55 215 1.55 261 1.55
 356  0.583  0.125  0.125-  72 1.55 262 1.55 216 1.55 223 1.55
 357  0.583  0.125  0.625-  73 1.55 217 1.55 263 1.55 224 1.55
 358  0.583  0.375  0.124- 218 1.55  74 1.55 225 1.55 264 1.55
 359  0.581  0.376  0.626- 574 1.51 226 1.55  75 1.55 265 1.57
 360  0.583  0.625  0.124-  76 1.55 266 1.55 219 1.55 227 1.55
 361  0.585  0.624  0.627- 576 1.48 228 1.54 220 1.56  77 1.56
 362  0.583  0.875  0.125- 267 1.55 221 1.55  78 1.55 229 1.55
 363  0.583  0.875  0.625-  79 1.55 222 1.55 268 1.55 230 1.55
 364  0.750  0.125  0.125-  80 1.55 223 1.55 231 1.55 269 1.55
 365  0.750  0.125  0.625- 224 1.55  81 1.55 270 1.55 232 1.55
 366  0.750  0.375  0.125- 225 1.54  82 1.54 233 1.55 271 1.55
 367  0.749  0.376  0.625-  83 1.54 234 1.55 272 1.55 226 1.56
 368  0.750  0.625  0.125-  84 1.54 235 1.55 227 1.55 273 1.55
 369  0.751  0.625  0.625- 236 1.54  85 1.55 228 1.55 274 1.55
 370  0.750  0.875  0.125-  86 1.55 275 1.55 237 1.55 229 1.55
 371  0.750  0.875  0.625- 276 1.54 238 1.55  87 1.55 230 1.55
 372  0.917  0.125  0.125-  88 1.55 192 1.55 277 1.55 231 1.55
 373  0.917  0.125  0.625- 193 1.55  89 1.55 278 1.55 232 1.55
 374  0.917  0.375  0.125- 194 1.55 279 1.55  90 1.55 233 1.55
 375  0.916  0.375  0.625-  91 1.55 280 1.55 195 1.55 234 1.55
 376  0.917  0.625  0.125-  92 1.55 196 1.55 235 1.55 281 1.55
 377  0.917  0.625  0.625- 197 1.54 236 1.55  93 1.55 282 1.55
 378  0.917  0.875  0.125-  94 1.55 198 1.55 283 1.55 237 1.55
 379  0.917  0.875  0.625- 199 1.55 284 1.55  95 1.55 238 1.55
 380  1.000  0.083  0.458-  49 1.55  96 1.55   2 1.55  89 1.55
 381  1.000  0.083  0.958-  48 1.55   1 1.55  97 1.55  88 1.55
 382  1.000  0.333  0.458-  98 1.55  51 1.55   4 1.55  91 1.55
 383  1.000  0.333  0.958-  50 1.55  90 1.55  99 1.55   3 1.55
 384  0.000  0.583  0.458-  93 1.55 100 1.55  53 1.55   6 1.55
 385  0.000  0.583  0.958-  52 1.55  92 1.55 101 1.55   5 1.55
 386  0.000  0.833  0.458-  55 1.55 102 1.55   8 1.55  95 1.55
 387  0.000  0.833  0.958-  54 1.55  94 1.55 103 1.55   7 1.55
 388  0.167  0.083  0.458-  57 1.55 104 1.55  10 1.55  49 1.55
 389  0.167  0.083  0.958-   9 1.55 105 1.55  56 1.55  48 1.55
 390  0.167  0.333  0.458- 106 1.55  12 1.55  59 1.55  51 1.55
 391  0.167  0.333  0.958- 107 1.55  58 1.55  11 1.55  50 1.55
 392  0.167  0.583  0.458- 108 1.55  14 1.55  61 1.55  53 1.55
 393  0.167  0.583  0.958-  52 1.55 109 1.55  13 1.55  60 1.55
 394  0.167  0.833  0.458- 110 1.55  63 1.55  16 1.55  55 1.55
 395  0.167  0.833  0.958-  15 1.55  62 1.55 111 1.55  54 1.55
 396  0.333  0.083  0.458- 112 1.55  65 1.55  57 1.55  18 1.55
 397  0.333  0.083  0.958-  17 1.55 113 1.55  64 1.55  56 1.55
 398  0.333  0.333  0.459-  59 1.55  20 1.55  67 1.55 114 1.55
 399  0.333  0.333  0.958- 115 1.54  19 1.55  58 1.55  66 1.55
 400  0.334  0.583  0.458-  22 1.54  69 1.54  61 1.55 116 1.55
 401  0.333  0.583  0.959- 117 1.54  60 1.54  21 1.55  68 1.55
 402  0.333  0.833  0.458- 118 1.55  71 1.55  24 1.55  63 1.55
 403  0.333  0.833  0.958-  23 1.55 119 1.55  70 1.55  62 1.55
 404  0.500  0.083  0.458- 120 1.55  65 1.55  73 1.55  26 1.55
 405  0.500  0.083  0.958-  25 1.55 121 1.55  64 1.55  72 1.55
 406  0.500  0.334  0.458-  67 1.54  75 1.54 122 1.55  28 1.55
 407  0.500  0.333  0.959- 123 1.54  27 1.54  66 1.55  74 1.55
 408  0.500  0.583  0.456- 572 1.52 124 1.54  69 1.55  77 1.55
 409  0.500  0.583  0.957-  29 1.54  76 1.55  68 1.55 125 1.56
 410  0.500  0.833  0.458-  71 1.55 126 1.55  79 1.55  31 1.55
 411  0.500  0.833  0.958-  30 1.55 127 1.55  70 1.55  78 1.55
 412  0.667  0.083  0.458- 128 1.55  81 1.55  73 1.55  33 1.55
 413  0.667  0.083  0.958-  32 1.55 129 1.55  72 1.55  80 1.55
 414  0.666  0.334  0.459-  83 1.55  35 1.55 130 1.55  75 1.55
 415  0.667  0.333  0.958- 131 1.54  74 1.55  82 1.55  34 1.55
 416  0.667  0.583  0.458-  37 1.54  77 1.54 132 1.55  85 1.55
 417  0.667  0.584  0.958- 133 1.54  84 1.54  76 1.55  36 1.55
 418  0.667  0.833  0.458- 134 1.55  39 1.55  79 1.55  87 1.55
 419  0.667  0.833  0.958- 135 1.55  38 1.55  86 1.55  78 1.55
 420  0.833  0.083  0.458- 136 1.55  89 1.55  41 1.55  81 1.55
 421  0.833  0.083  0.958- 137 1.55  88 1.55  80 1.55  40 1.55
 422  0.833  0.334  0.458- 138 1.55  91 1.55  43 1.55  83 1.55
 423  0.833  0.333  0.958-  82 1.55 139 1.55  90 1.55  42 1.55
 424  0.833  0.583  0.458-  85 1.55  45 1.55 140 1.55  93 1.55
 425  0.834  0.583  0.958-  92 1.54 141 1.55  84 1.55  44 1.55
 426  0.833  0.833  0.458-  47 1.55 142 1.55  95 1.55  87 1.55
 427  0.833  0.833  0.958-  94 1.55 143 1.55  46 1.55  86 1.55
 428  0.083  0.208  0.458- 144 1.55  12 1.55  49 1.55   4 1.55
 429  0.083  0.208  0.958-  11 1.55  48 1.55 145 1.55   3 1.55
 430  0.083  0.458  0.458-  14 1.55 146 1.55  51 1.55   6 1.55
 431  0.083  0.458  0.958- 147 1.55  13 1.55   5 1.55  50 1.55
 432  0.083  0.708  0.458- 148 1.55  16 1.55  53 1.55   8 1.55
 433  0.083  0.708  0.958-  15 1.55 149 1.55   7 1.55  52 1.55
 434  0.083  0.958  0.458-  10 1.55 150 1.55  55 1.55   2 1.55
 435  0.083  0.958  0.958-   9 1.55  54 1.55 151 1.55   1 1.55
 436  0.250  0.208  0.458- 152 1.55  20 1.55  12 1.55  57 1.55
 437  0.250  0.208  0.958- 153 1.55  56 1.55  19 1.55  11 1.55
 438  0.250  0.458  0.459-  59 1.55  14 1.55  22 1.55 154 1.55
 439  0.250  0.458  0.958- 155 1.54  13 1.55  58 1.55  21 1.55
 440  0.250  0.708  0.458-  24 1.55  61 1.55 156 1.55  16 1.55
 441  0.250  0.708  0.958-  15 1.55  23 1.55 157 1.55  60 1.55
 442  0.250  0.958  0.458- 158 1.55  18 1.55  63 1.55  10 1.55
 443  0.250  0.958  0.958-  62 1.55 159 1.55  17 1.55   9 1.55
 444  0.417  0.208  0.458- 160 1.55  20 1.55  28 1.55  65 1.55
 445  0.417  0.208  0.958-  64 1.55 161 1.55  19 1.55  27 1.55
 446  0.417  0.458  0.456- 572 1.52 162 1.54  22 1.55  67 1.55
 447  0.417  0.458  0.958- 163 1.54  21 1.55  66 1.55  29 1.55
 448  0.417  0.708  0.459-  31 1.55  24 1.55 164 1.55  69 1.55
 449  0.417  0.708  0.958- 165 1.54  68 1.55  30 1.55  23 1.55
 450  0.417  0.958  0.458- 166 1.55  18 1.55  26 1.55  71 1.55
 451  0.417  0.958  0.958-  70 1.55 167 1.55  17 1.55  25 1.55
 452  0.583  0.208  0.458-  28 1.55  35 1.55 168 1.55  73 1.55
 453  0.583  0.208  0.958-  72 1.55  34 1.55 169 1.55  27 1.55
 454  0.583  0.459  0.456- 572 1.52 170 1.54  75 1.55  37 1.55
 455  0.583  0.459  0.957-  29 1.54  36 1.55  74 1.55 171 1.56
 456  0.583  0.708  0.459-  31 1.55  39 1.55 172 1.55  77 1.55
 457  0.583  0.708  0.958- 173 1.54  76 1.55  30 1.55  38 1.55
 458  0.583  0.958  0.458- 174 1.55  33 1.55  26 1.55  79 1.55
 459  0.583  0.958  0.958-  78 1.55  32 1.55 175 1.55  25 1.55
 460  0.750  0.208  0.458- 176 1.55  43 1.55  35 1.55  81 1.55
 461  0.750  0.208  0.958- 177 1.55  34 1.55  42 1.55  80 1.55
 462  0.750  0.459  0.459-  83 1.55  45 1.55 178 1.55  37 1.55
 463  0.750  0.458  0.958- 179 1.54  36 1.55  82 1.55  44 1.55
 464  0.750  0.708  0.458-  85 1.55 180 1.55  39 1.55  47 1.55
 465  0.750  0.708  0.958-  46 1.55 181 1.55  38 1.55  84 1.55
 466  0.750  0.958  0.458- 182 1.55  87 1.55  33 1.55  41 1.55
 467  0.750  0.958  0.958-  86 1.55 183 1.55  40 1.55  32 1.55
 468  0.917  0.208  0.458-   4 1.55 184 1.55  89 1.55  43 1.55
 469  0.917  0.208  0.958-  42 1.55   3 1.55 185 1.55  88 1.55
 470  0.917  0.458  0.458- 186 1.55  45 1.55  91 1.55   6 1.55
 471  0.917  0.458  0.958-  44 1.55 187 1.55   5 1.55  90 1.55
 472  0.917  0.708  0.458- 188 1.55   8 1.55  93 1.55  47 1.55
 473  0.917  0.708  0.958-   7 1.55  46 1.55 189 1.55  92 1.55
 474  0.917  0.958  0.458- 190 1.55  95 1.55   2 1.55  41 1.55
 475  0.917  0.958  0.958-   1 1.55 191 1.55  94 1.55  40 1.55
 476  1.000  0.167  0.292- 192 1.55 144 1.55  96 1.55 184 1.55
 477  1.000  0.167  0.792- 145 1.55 193 1.55  97 1.55 185 1.55
 478  1.000  0.417  0.292- 194 1.55  98 1.55 146 1.55 186 1.55
 479  1.000  0.417  0.792- 187 1.55 195 1.55 147 1.55  99 1.55
 480  0.000  0.667  0.292- 196 1.55 148 1.55 100 1.55 188 1.55
 481  0.000  0.667  0.792- 149 1.55 189 1.55 197 1.55 101 1.55
 482  0.000  0.917  0.292- 198 1.55 150 1.55 102 1.55 190 1.55
 483  0.000  0.917  0.792- 151 1.55 103 1.55 199 1.55 191 1.55
 484  0.167  0.167  0.292- 152 1.55 200 1.55 104 1.55 144 1.55
 485  0.167  0.167  0.792- 153 1.55 105 1.55 201 1.55 145 1.55
 486  0.167  0.417  0.292- 154 1.55 146 1.55 202 1.55 106 1.55
 487  0.167  0.417  0.792- 155 1.55 147 1.55 203 1.55 107 1.55
 488  0.167  0.667  0.292- 204 1.55 148 1.55 156 1.55 108 1.55
 489  0.167  0.667  0.792- 157 1.55 205 1.55 149 1.55 109 1.55
 490  0.167  0.917  0.292- 206 1.55 158 1.55 110 1.55 150 1.55
 491  0.167  0.917  0.792- 159 1.55 111 1.55 207 1.55 151 1.55
 492  0.333  0.167  0.292- 208 1.55 160 1.55 112 1.55 152 1.55
 493  0.333  0.167  0.792- 113 1.55 209 1.55 153 1.55 161 1.55
 494  0.333  0.417  0.291- 162 1.54 210 1.54 154 1.55 114 1.55
 495  0.333  0.417  0.792- 211 1.54 163 1.55 155 1.55 115 1.55
 496  0.333  0.667  0.292- 116 1.55 164 1.55 156 1.55 212 1.55
 497  0.333  0.666  0.792- 165 1.55 157 1.55 213 1.55 117 1.55
 498  0.333  0.917  0.292- 214 1.55 166 1.55 118 1.55 158 1.55
 499  0.333  0.917  0.792- 215 1.55 119 1.55 167 1.55 159 1.55
 500  0.500  0.167  0.292- 216 1.55 120 1.55 160 1.55 168 1.55
 501  0.500  0.167  0.792- 217 1.55 121 1.55 161 1.55 169 1.55
 502  0.500  0.417  0.291- 218 1.54 122 1.55 162 1.55 170 1.55
 503  0.499  0.416  0.791- 574 1.49 163 1.55 171 1.55 123 1.55
 504  0.500  0.667  0.291- 124 1.54 219 1.54 164 1.55 172 1.55
 505  0.500  0.666  0.791- 220 1.54 125 1.54 165 1.55 173 1.55
 506  0.500  0.917  0.292- 221 1.55 166 1.55 174 1.55 126 1.55
 507  0.500  0.917  0.792- 127 1.55 222 1.55 167 1.55 175 1.55
 508  0.667  0.167  0.292- 168 1.55 223 1.55 176 1.55 128 1.55
 509  0.667  0.167  0.792- 169 1.55 224 1.55 129 1.55 177 1.55
 510  0.667  0.417  0.291- 170 1.54 225 1.54 130 1.55 178 1.55
 511  0.666  0.417  0.791- 171 1.54 226 1.54 131 1.55 179 1.55
 512  0.667  0.667  0.292- 132 1.54 172 1.55 227 1.55 180 1.55
 513  0.667  0.667  0.792- 181 1.54 173 1.55 133 1.55 228 1.55
 514  0.667  0.917  0.292- 229 1.55 174 1.55 134 1.55 182 1.55
 515  0.667  0.917  0.792- 135 1.55 230 1.55 175 1.55 183 1.55
 516  0.833  0.167  0.292- 184 1.55 231 1.55 136 1.55 176 1.55
 517  0.833  0.167  0.792- 232 1.55 185 1.55 177 1.55 137 1.55
 518  0.833  0.417  0.292- 186 1.55 138 1.55 178 1.55 233 1.55
 519  0.833  0.417  0.792- 179 1.55 234 1.55 187 1.55 139 1.55
 520  0.833  0.667  0.292- 235 1.55 188 1.55 140 1.55 180 1.55
 521  0.834  0.667  0.792- 189 1.54 181 1.55 236 1.55 141 1.55
 522  0.833  0.917  0.292- 237 1.55 142 1.55 190 1.55 182 1.55
 523  0.833  0.917  0.792- 191 1.55 143 1.55 238 1.55 183 1.55
 524  0.083  0.042  0.292- 104 1.55 239 1.55 150 1.55  96 1.55
 525  0.083  0.042  0.792- 105 1.55 151 1.55 240 1.55  97 1.55
 526  0.083  0.292  0.292- 241 1.55 106 1.55 144 1.55  98 1.55
 527  0.083  0.292  0.792- 107 1.55 242 1.55 145 1.55  99 1.55
 528  0.083  0.542  0.292- 243 1.55 108 1.55 100 1.55 146 1.55
 529  0.083  0.542  0.792- 101 1.55 109 1.55 147 1.55 244 1.55
 530  0.083  0.792  0.292- 245 1.55 110 1.55 148 1.55 102 1.55
 531  0.083  0.792  0.792- 111 1.55 246 1.55 149 1.55 103 1.55
 532  0.250  0.042  0.292- 247 1.55 112 1.55 158 1.55 104 1.55
 533  0.250  0.042  0.792- 159 1.55 248 1.55 113 1.55 105 1.55
 534  0.250  0.292  0.292- 114 1.55 249 1.55 152 1.55 106 1.55
 535  0.250  0.292  0.792- 115 1.55 250 1.55 153 1.55 107 1.55
 536  0.250  0.542  0.292- 251 1.55 116 1.55 108 1.55 154 1.55
 537  0.250  0.542  0.792- 109 1.55 155 1.55 252 1.55 117 1.55
 538  0.250  0.792  0.292- 253 1.55 118 1.55 156 1.55 110 1.55
 539  0.250  0.792  0.792- 119 1.55 254 1.55 157 1.55 111 1.55
 540  0.417  0.042  0.292- 255 1.55 112 1.55 166 1.55 120 1.55
 541  0.417  0.042  0.792- 167 1.55 256 1.55 113 1.55 121 1.55
 542  0.417  0.292  0.292- 257 1.55 122 1.55 114 1.55 160 1.55
 543  0.416  0.292  0.792- 161 1.55 115 1.55 258 1.55 123 1.55
 544  0.417  0.542  0.291- 259 1.54 116 1.55 162 1.55 124 1.55
 545  0.416  0.541  0.791- 575 1.49 163 1.55 125 1.55 117 1.55
 546  0.417  0.792  0.292- 118 1.55 164 1.55 126 1.55 260 1.55
 547  0.417  0.791  0.792- 261 1.55 165 1.55 127 1.55 119 1.55
 548  0.583  0.042  0.292- 262 1.55 128 1.55 120 1.55 174 1.55
 549  0.583  0.042  0.792- 263 1.55 175 1.55 129 1.55 121 1.55
 550  0.583  0.292  0.292- 122 1.55 130 1.55 264 1.55 168 1.55
 551  0.583  0.292  0.792- 131 1.55 169 1.55 265 1.55 123 1.55
 552  0.583  0.542  0.291- 266 1.54 132 1.55 124 1.55 170 1.55
 553  0.585  0.543  0.789- 576 1.48 133 1.55 125 1.56 171 1.56
 554  0.583  0.792  0.292- 134 1.55 126 1.55 172 1.55 267 1.55
 555  0.583  0.792  0.792- 173 1.55 268 1.55 127 1.55 135 1.55
 556  0.750  0.042  0.292- 269 1.55 128 1.55 136 1.55 182 1.55
 557  0.750  0.042  0.792- 270 1.55 183 1.55 129 1.55 137 1.55
 558  0.750  0.292  0.292- 130 1.55 138 1.55 176 1.55 271 1.55
 559  0.750  0.292  0.792- 272 1.54 131 1.55 139 1.55 177 1.55
 560  0.750  0.542  0.292- 132 1.54 178 1.55 273 1.55 140 1.55
 561  0.751  0.542  0.792- 141 1.54 179 1.55 133 1.55 274 1.55
 562  0.750  0.792  0.292- 275 1.55 180 1.55 134 1.55 142 1.55
 563  0.750  0.792  0.792- 143 1.54 181 1.55 276 1.55 135 1.55
 564  0.917  0.042  0.292- 277 1.55 190 1.55  96 1.55 136 1.55
 565  0.917  0.042  0.792-  97 1.55 191 1.55 278 1.55 137 1.55
 566  0.917  0.292  0.292-  98 1.55 279 1.55 184 1.55 138 1.55
 567  0.917  0.292  0.792- 280 1.55 139 1.55  99 1.55 185 1.55
 568  0.917  0.542  0.292- 140 1.55 281 1.55 186 1.55 100 1.55
 569  0.917  0.542  0.792- 101 1.54 141 1.55 187 1.55 282 1.55
 570  0.917  0.792  0.292- 283 1.55 142 1.55 188 1.55 102 1.55
 571  0.917  0.792  0.792- 103 1.55 143 1.55 189 1.55 284 1.55
 572  0.500  0.500  0.491- 573 1.09 408 1.52 454 1.52 446 1.52
 573  0.499  0.499  0.579- 572 1.09
 574  0.498  0.411  0.671- 503 1.49 351 1.49 359 1.51
 575  0.410  0.543  0.671- 545 1.49 306 1.49 353 1.51
 576  0.591  0.546  0.670- 361 1.48 321 1.48 553 1.48
 
  LATTYP: Found a simple monoclinic cell.
 ALAT       =    12.3703241348
 B/A-ratio  =     1.2248453018
 C/A-ratio  =     1.4141600350
 COS(beta)  =    -0.0000282295
  
  Lattice vectors:
  
 A1 = (   0.0000000000,  -0.0003492082,  12.3703241299)
 A2 = (  15.1517333984,   0.0000000000,   0.0000000000)
 A3 = (   0.0000000000,  17.4936180115,   0.0000000000)


Analysis of symmetry for initial positions (statically):
=====================================================================
 Subroutine PRICEL returns:
 Original cell was already a primitive cell.
 

 Routine SETGRP: Setting up the symmetry group for a 
 simple monoclinic supercell.


 Subroutine GETGRP returns: Found  1 space group operations
 (whereof  1 operations were pure point group operations)
 out of a pool of  4 trial point group operations.


The static configuration has the point symmetry C_1 .


Analysis of symmetry for dynamics (positions and initial velocities):
=====================================================================
 Subroutine PRICEL returns:
 Original cell was already a primitive cell.
 

 Routine SETGRP: Setting up the symmetry group for a 
 simple monoclinic supercell.


 Subroutine GETGRP returns: Found  1 space group operations
 (whereof  1 operations were pure point group operations)
 out of a pool of  4 trial point group operations.


The dynamic configuration has the point symmetry C_1 .


Analysis of structural, dynamic, and magnetic symmetry:
=====================================================================
 Subroutine PRICEL returns:
 Original cell was already a primitive cell.
 

 Routine SETGRP: Setting up the symmetry group for a 
 simple monoclinic supercell.


 Subroutine GETGRP returns: Found  1 space group operations
 (whereof  1 operations were pure point group operations)
 out of a pool of  4 trial point group operations.


The overall configuration has the point symmetry C_1 .


 Subroutine INISYM returns: Found  1 space group operations
 (whereof  1 operations are pure point group operations),
 and found     1 'primitive' translations


----------------------------------------------------------------------------------------

                                     Primitive cell                                     

  volume of cell :    3278.8612

  direct lattice vectors                    reciprocal lattice vectors
    15.151733398  0.000000000  0.000000000     0.065999049  0.000000000  0.000000000
     0.000000000 17.493618012  0.000000000     0.000000000  0.057163704  0.000001614
     0.000000000 -0.000349208 12.370324130     0.000000000  0.000000000  0.080838626

  length of vectors
    15.151733398 17.493618012 12.370324135     0.065999049  0.057163704  0.080838626

  position of ions in fractional coordinates (direct lattice)
     0.000000957  0.000028913  0.000020077
     0.999993479  0.000039134  0.500003345
     0.999948753  0.249994541  0.000000287
     0.999921894  0.250026774  0.499997260
     0.999993939  0.499991002  0.000048952
     0.999993259  0.499999589  0.500011423
     0.000060188  0.750036280  0.000108322
     0.000081524  0.750026238  0.500044376
     0.166656326  0.999972595  0.000024297
     0.166656963  0.999955728  0.500011879
     0.166597721  0.249966652  0.999988484
     0.166618374  0.249990241  0.500017115
     0.166610169  0.499963886  0.000036100
     0.166643406  0.499929956  0.500057026
     0.166679333  0.750004027  0.000078454
     0.166758756  0.749923600  0.500034057
     0.333337174  0.999940789  0.000045339
     0.333359293  0.999901113  0.500029087
     0.333283411  0.249950844  0.000007881
     0.333265948  0.249970991  0.500071518
     0.333237523  0.499966757  0.999969269
     0.333822312  0.499919418  0.500137012
     0.333379046  0.749925846  0.999916415
     0.333469768  0.749758769  0.500094203
     0.499992552  0.999964481  0.000039892
     0.499998743  0.999945853  0.500033187
     0.499968153  0.249862559  0.000332965
     0.499927845  0.250145705  0.500032625
     0.499998945  0.499985787  0.999374033
     0.500028633  0.750000772  0.999798547
     0.500119909  0.749555913  0.500204147
     0.666649200  0.999999600  0.000031711
     0.666642116  0.000006614  0.500021264
     0.666623134  0.250062371  0.999894444
     0.666505864  0.250201820  0.500079535
     0.666714182  0.500094566  0.999619668
     0.665823139  0.500623639  0.500387586
     0.666720911  0.750031729  0.999964927
     0.666792753  0.749998175  0.500094572
     0.833339063  0.000037526  0.000019079
     0.833334811  0.000065456  0.500010845
     0.833297012  0.250038624  0.999940957
     0.833177662  0.250157543  0.500029600
     0.833384458  0.500034220  0.999984944
     0.833376754  0.500121622  0.500060818
     0.833449729  0.750089395  0.000113679
     0.833445279  0.750088140  0.500018104
     0.083296419  0.124994295  0.000003167
     0.083283977  0.125008626  0.499991837
     0.083262994  0.374968696  0.999981912
     0.083277318  0.374987018  0.500005452
     0.083332326  0.625001819  0.000142142
     0.083425380  0.624963360  0.500026183
     0.083349544  0.875015872  0.000046602
     0.083376409  0.874994658  0.500015920
     0.249967055  0.124946697  0.000021259
     0.249955797  0.124923479  0.500010438
     0.249868805  0.374925853  0.999877545
     0.250052106  0.375011320  0.500140025
     0.249855908  0.625035650  0.000390957
     0.250177243  0.624816143  0.500036589
     0.250023540  0.874950872  0.999998170
     0.250058322  0.874889851  0.500027575
     0.416643103  0.124941748  0.000072841
     0.416644707  0.124990679  0.500023862
     0.416588636  0.374905615  0.999935422
     0.416854296  0.375378452  0.500151587
     0.416765875  0.624901862  0.999419261
     0.417065734  0.624170924  0.500111848
     0.416686091  0.874948365  0.999967111
     0.416753749  0.874781518  0.500047075
     0.583327469  0.124982156  0.000028415
     0.583283443  0.125061127  0.500013670
     0.583274420  0.375099676  0.999400965
     0.582706487  0.375706580  0.500131101
     0.583436792  0.624998132  0.999577753
     0.583518232  0.624070149  0.500405387
     0.583333380  0.874981478  0.999999936
     0.583345409  0.874882606  0.500036272
     0.749976013  0.125030985  0.999967918
     0.749924723  0.125083126  0.500013471
     0.750009650  0.375028625  0.999744934
     0.749590070  0.375326060  0.500185072
     0.750251616  0.625129870  0.000239877
     0.750230350  0.625123732  0.499935912
     0.750030455  0.875037541  0.000036945
     0.750053245  0.875038387  0.500023556
     0.916645117  0.125027695  0.999993817
     0.916608464  0.125077489  0.500003084
     0.916623595  0.375005675  0.999968692
     0.916536046  0.375061493  0.500009328
     0.916784214  0.625047823  0.000163158
     0.916814032  0.625054333  0.500004836
     0.916718839  0.875056774  0.000065071
     0.916723876  0.875065856  0.500016883
     0.999972244  0.083366072  0.333343262
     0.999968841  0.083362286  0.833327689
     0.999935792  0.333350105  0.333343171
     0.999912084  0.333324630  0.833303220
     0.000045319  0.583315937  0.333368312
     0.000077078  0.583353518  0.833440890
     0.000033881  0.833349466  0.333391682
     0.000074145  0.833390444  0.833377615
     0.166661273  0.083319972  0.333329813
     0.166633183  0.083275268  0.833325534
     0.166648485  0.333329437  0.333364214
     0.166536407  0.333252071  0.833268994
     0.166722007  0.583270603  0.333368914
     0.166614643  0.583247610  0.833436483
     0.166724476  0.833293086  0.333361411
     0.166714787  0.833307565  0.833346528
     0.333326392  0.083302139  0.333366611
     0.333275282  0.083226856  0.833360465
     0.333270375  0.333339811  0.333318897
     0.333149306  0.333251779  0.833311435
     0.333410305  0.583222984  0.333231483
     0.332979691  0.583298456  0.834543753
     0.333371464  0.833236016  0.333366606
     0.333381771  0.833202250  0.833258238
     0.499992545  0.083313604  0.333417385
     0.499972289  0.083318457  0.833335230
     0.499952863  0.333419239  0.333253923
     0.499803981  0.333047163  0.834512986
     0.500147904  0.583956765  0.331990253
     0.500181308  0.582995142  0.831440481
     0.500023788  0.833183835  0.333431902
     0.500039362  0.833260007  0.833258579
     0.666646149  0.083364560  0.333346672
     0.666651280  0.083345943  0.833316095
     0.666575923  0.333472020  0.333314624
     0.666500243  0.333490588  0.833095828
     0.666733912  0.583367980  0.333081605
     0.667445479  0.583740932  0.834147736
     0.666685966  0.833311871  0.333358417
     0.666749396  0.833371442  0.833333866
     0.833289298  0.083385795  0.333332477
     0.833288359  0.083392960  0.833297953
     0.833182318  0.333433542  0.333407228
     0.833243715  0.333403067  0.833193648
     0.833388930  0.583355852  0.333295969
     0.833671616  0.583463136  0.833507399
     0.833346497  0.833366097  0.333346327
     0.833458138  0.833460883  0.833408701
     0.083312538  0.208352321  0.333350625
     0.083276513  0.208305574  0.833321094
     0.083316173  0.458299590  0.333345283
     0.083280926  0.458296352  0.833353748
     0.083381911  0.708321958  0.333440616
     0.083438844  0.708328846  0.833395469
     0.083360899  0.958332974  0.333359267
     0.083358762  0.958341375  0.833352527
     0.249958404  0.208317887  0.333377724
     0.249902264  0.208245335  0.833357342
     0.249987800  0.458280109  0.333339232
     0.249868153  0.458216697  0.833362250
     0.250091568  0.708247911  0.333374661
     0.250060563  0.708267690  0.833365566
     0.250020107  0.958291515  0.333390393
     0.250003917  0.958251841  0.833357200
     0.416622520  0.208360517  0.333382032
     0.416518665  0.208253454  0.833404785
     0.416045773  0.458018576  0.332067170
     0.416504670  0.458229752  0.833250100
     0.416734019  0.708186651  0.333334010
     0.416724124  0.708131360  0.833141734
     0.416669193  0.958256632  0.333408017
     0.416658958  0.958259463  0.833321218
     0.583320005  0.208418168  0.333339285
     0.583310097  0.208374084  0.833313013
     0.584018745  0.458142418  0.331977297
     0.583089607  0.458637491  0.831436073
     0.583399924  0.708152374  0.333449625
     0.583472422  0.708315826  0.833233575
     0.583342073  0.958292084  0.333394890
     0.583350816  0.958310350  0.833334638
     0.749939907  0.208417045  0.333374952
     0.749905559  0.208433955  0.833272573
     0.749838479  0.458477377  0.333436570
     0.750010025  0.458470722  0.833256170
     0.750049738  0.708373621  0.333335050
     0.750295933  0.708566856  0.833495287
     0.749986240  0.958358247  0.333378949
     0.750021514  0.958383389  0.833374752
     0.916585431  0.208393226  0.333360703
     0.916585075  0.208374289  0.833302271
     0.916624629  0.458345099  0.333352396
     0.916640423  0.458369254  0.833340915
     0.916704798  0.708358148  0.333408428
     0.916823311  0.708431291  0.833445491
     0.916646295  0.958369528  0.333355831
     0.916679401  0.958406247  0.833362859
     0.999967354  0.166691042  0.166670263
     0.999915701  0.166694476  0.666641875
     0.999960799  0.416652194  0.166666660
     0.999866723  0.416668801  0.666658816
     0.000034292  0.666678709  0.166775462
     0.000173150  0.666724347  0.666691236
     0.000012309  0.916692963  0.166704486
     0.000044511  0.916734237  0.666665900
     0.166636915  0.166662065  0.166679808
     0.166562257  0.166572031  0.666652421
     0.166610167  0.416641649  0.166641956
     0.166426755  0.416575704  0.666665031
     0.166646885  0.666680791  0.166867508
     0.166778678  0.666592969  0.666643639
     0.166683621  0.916655171  0.166694298
     0.166664878  0.916640209  0.666671276
     0.333317780  0.166646704  0.166716558
     0.333043117  0.166340251  0.666647371
     0.333093389  0.416544787  0.166278835
     0.333117920  0.416540313  0.666731531
     0.333403629  0.666610670  0.166510302
     0.333461680  0.666706219  0.666527294
     0.333348685  0.916624366  0.166702829
     0.333408757  0.916479437  0.666663445
     0.499994256  0.166636700  0.166794956
     0.499935388  0.166690894  0.666616508
     0.500002868  0.416638419  0.166157962
     0.500057815  0.666830159  0.166127829
     0.500466757  0.665131660  0.666923284
     0.499996176  0.916609928  0.166713817
     0.500031480  0.916557605  0.666630725
     0.666645077  0.166705302  0.166660602
     0.666671622  0.166662548  0.666632719
     0.666854636  0.416629110  0.166103475
     0.665355793  0.417793373  0.666913244
     0.666697938  0.666687052  0.166533273
     0.667647033  0.667615656  0.666657266
     0.666652806  0.916663457  0.166706998
     0.666695405  0.916662457  0.666679294
     0.833306181  0.166707967  0.166665449
     0.833193612  0.166815699  0.666643800
     0.833281592  0.416702222  0.166653891
     0.833168856  0.416875376  0.666642876
     0.833415927  0.666715531  0.166792206
     0.833784888  0.666924383  0.666680673
     0.833334449  0.916698564  0.166696117
     0.833429528  0.916810465  0.666688522
     0.083335868  0.041675987  0.166669285
     0.083307987  0.041664594  0.666647912
     0.083306923  0.291668642  0.166665429
     0.083207848  0.291618860  0.666625163
     0.083338992  0.541648143  0.166718609
     0.083077387  0.541601719  0.666653283
     0.083366142  0.791679790  0.166738340
     0.083414183  0.791672119  0.666672822
     0.250000152  0.041639964  0.166663825
     0.249927135  0.041491192  0.666643887
     0.249954861  0.291640034  0.166617446
     0.249808398  0.291497010  0.666641802
     0.249972971  0.541638799  0.166642860
     0.249002061  0.541264201  0.666514867
     0.250032055  0.791626381  0.166651929
     0.250037467  0.791665115  0.666623818
     0.416657229  0.041626185  0.166730427
     0.416647589  0.041588090  0.666655902
     0.416624458  0.291654508  0.166648075
     0.415767178  0.291038898  0.666504496
     0.416640352  0.541674856  0.166156082
     0.416669959  0.791618389  0.166614251
     0.416858204  0.791185821  0.666649930
     0.583335847  0.041651464  0.166709533
     0.583325251  0.041657007  0.666648842
     0.583331876  0.291735792  0.166493290
     0.583434764  0.291704256  0.666499865
     0.583434641  0.541719356  0.166096503
     0.583358803  0.791619309  0.166664539
     0.583481032  0.791500073  0.666661867
     0.749982971  0.041688046  0.166640707
     0.750004061  0.041686623  0.666629024
     0.749960204  0.291711872  0.166579593
     0.749610986  0.292042163  0.666626968
     0.750032415  0.541687009  0.166521408
     0.751350253  0.541979529  0.666657223
     0.750021632  0.791689608  0.166652567
     0.750301222  0.791998686  0.666688173
     0.916640622  0.041698836  0.166666165
     0.916631623  0.041757003  0.666653191
     0.916601297  0.291692323  0.166670375
     0.916523378  0.291741950  0.666608783
     0.916681788  0.541665952  0.166695415
     0.916962722  0.541739561  0.666678363
     0.916693132  0.791700245  0.166735944
     0.916816017  0.791797876  0.666692108
     0.999996395  0.000025618  0.125003125
     0.999988519  0.000056045  0.624987065
     0.999958767  0.250021749  0.124989600
     0.999885163  0.250027043  0.624970301
     0.999996158  0.500001404  0.125010589
     0.999965166  0.500056039  0.625030297
     0.000035594  0.750027337  0.125087238
     0.000105363  0.750054861  0.625031956
     0.166661524  0.999982683  0.124994902
     0.166617385  0.999922248  0.624991027
     0.166625733  0.249988290  0.124958762
     0.166560764  0.249928926  0.625001777
     0.166624444  0.499989538  0.124963085
     0.166078018  0.499979069  0.625083763
     0.166662340  0.750001013  0.125047505
     0.166721022  0.749951903  0.625007648
     0.333345311  0.999950679  0.125021003
     0.333371993  0.999852794  0.624995367
     0.333313251  0.249965613  0.124954359
     0.332998130  0.249473064  0.625086480
     0.333247326  0.499953377  0.124714583
     0.333480947  0.500052621  0.625813457
     0.333361826  0.749945192  0.124886690
     0.333304834  0.749860934  0.625055111
     0.499996831  0.999957547  0.125039326
     0.499997958  0.999921691  0.624996159
     0.499985408  0.249908009  0.125091852
     0.499800499  0.250074001  0.624988425
     0.500040033  0.500016002  0.124418185
     0.500022102  0.750026698  0.124698699
     0.500396867  0.749107093  0.625034837
     0.666645682  0.999992440  0.125006870
     0.666644074  0.999993244  0.624984527
     0.666631479  0.250047540  0.124871540
     0.666498841  0.250014970  0.625032580
     0.666719306  0.500018362  0.124518363
     0.666776549  0.502005991  0.626536665
     0.666696950  0.750010669  0.124917315
     0.667182353  0.750425144  0.625049513
     0.833330781  0.000027722  0.124987252
     0.833368617  0.000080409  0.624990208
     0.833293194  0.250040742  0.124940373
     0.833100100  0.250270718  0.624967138
     0.833357632  0.500032581  0.124932652
     0.833903552  0.500220474  0.625030041
     0.833400889  0.750050593  0.125048216
     0.833594319  0.750211435  0.625015077
     0.083306215  0.125007342  0.124990476
     0.083258443  0.124983516  0.624980834
     0.083280063  0.374996069  0.124960681
     0.083182282  0.374962555  0.625007098
     0.083328278  0.625012861  0.125104084
     0.083383844  0.624997115  0.625024067
     0.083340541  0.875007034  0.125033941
     0.083358856  0.875000598  0.625004549
     0.249988103  0.124975267  0.125000576
     0.249870316  0.124756541  0.625011783
     0.249876345  0.374944910  0.124727970
     0.249941935  0.374957561  0.625166051
     0.249893159  0.625037652  0.125133049
     0.250052597  0.624778342  0.624997557
     0.250018823  0.874964950  0.124992785
     0.249990896  0.874942090  0.625012415
     0.416666762  0.124954332  0.125052110
     0.416607339  0.124905869  0.625004407
     0.416574770  0.374947956  0.124685888
     0.416816736  0.375045545  0.625843663
     0.416802892  0.624975632  0.124434442
     0.417118432  0.622897930  0.625560740
     0.416674879  0.874944604  0.124977181
     0.416829183  0.874681661  0.624996336
     0.583318107  0.124982429  0.125021854
     0.583271741  0.125004986  0.624997380
     0.583362424  0.375096648  0.124423868
     0.581429001  0.376378401  0.625580479
     0.583358302  0.625045311  0.124494176
     0.585373980  0.624108327  0.626557670
     0.583329672  0.874960609  0.125016859
     0.583343095  0.874867544  0.625007496
     0.749975997  0.125035197  0.124965095
     0.749935892  0.125018033  0.624996422
     0.750044649  0.375016660  0.124640312
     0.749274871  0.375755200  0.625014377
     0.750133026  0.625080241  0.125045018
     0.750716995  0.625399847  0.624948351
     0.750006368  0.875023498  0.125011721
     0.750166142  0.875172510  0.625027225
     0.916644430  0.125031202  0.124986881
     0.916587529  0.125106994  0.624981495
     0.916622649  0.375023719  0.124983895
     0.916480504  0.375077583  0.624985759
     0.916739155  0.625034389  0.125100525
     0.916960003  0.625130763  0.625019819
     0.916695644  0.875033995  0.125042811
     0.916765339  0.875101091  0.625014439
     0.999958368  0.083376970  0.458331465
     0.999978470  0.083354729  0.958327504
     0.999909899  0.333372893  0.458331481
     0.999937459  0.333331191  0.958304572
     0.000081374  0.583347864  0.458343898
     0.000039926  0.583368186  0.958438612
     0.000054040  0.833362958  0.458368999
     0.000047254  0.833375706  0.958391069
     0.166644892  0.083296672  0.458310976
     0.166639825  0.083290834  0.958322640
     0.166696325  0.333356466  0.458358025
     0.166567488  0.333282532  0.958219101
     0.166775335  0.583256166  0.458357274
     0.166588718  0.583336553  0.958435224
     0.166722085  0.833263325  0.458342772
     0.166668470  0.833318550  0.958347041
     0.333336327  0.083267094  0.458346476
     0.333316863  0.083247113  0.958354921
     0.333496946  0.333468995  0.458513236
     0.333227688  0.333255544  0.958204221
     0.333599945  0.583026911  0.458415985
     0.332943868  0.583431546  0.958686397
     0.333412591  0.833119982  0.458358484
     0.333366540  0.833250042  0.958248800
     0.499979930  0.083308099  0.458370972
     0.499985732  0.083294178  0.958349397
     0.499841583  0.333645664  0.458441039
     0.499902040  0.332966846  0.958640856
     0.500168285  0.583120866  0.456252143
     0.500330502  0.583090094  0.957163025
     0.500073701  0.833045738  0.458451187
     0.500024835  0.833301801  0.958227336
     0.666612267  0.083372497  0.458334992
     0.666646438  0.083321189  0.958315996
     0.666180794  0.333706879  0.458596245
     0.666604972  0.333438380  0.957985091
     0.666759578  0.583393803  0.458201314
     0.667090699  0.583562997  0.958499879
     0.666708909  0.833285742  0.458324087
     0.666709848  0.833356700  0.958311028
     0.833275574  0.083407888  0.458321182
     0.833313810  0.083368675  0.958297570
     0.833065298  0.333534336  0.458418300
     0.833296885  0.333374438  0.958148116
     0.833454750  0.583422245  0.458285789
     0.833542594  0.583436710  0.958453683
     0.833400404  0.833392911  0.458329018
     0.833424207  0.833411859  0.958395744
     0.083293585  0.208353547  0.458330982
     0.083293914  0.208314909  0.958313989
     0.083344262  0.458326479  0.458305424
     0.083294063  0.458324419  0.958333122
     0.083408318  0.708313098  0.458386547
     0.083379786  0.708346928  0.958409053
     0.083352838  0.958328932  0.458338864
     0.083343193  0.958336066  0.958348543
     0.249979745  0.208316740  0.458342262
     0.249949383  0.208268170  0.958333030
     0.250231517  0.458372864  0.458512816
     0.249896256  0.458283808  0.958250727
     0.250118322  0.708157965  0.458386642
     0.249968743  0.708312362  0.958386781
     0.250023513  0.958246675  0.458366890
     0.250005384  0.958277129  0.958354539
     0.416635900  0.208383034  0.458377898
     0.416614001  0.208233881  0.958396980
     0.416717270  0.458353692  0.456311041
     0.416522676  0.458246375  0.957927189
     0.416784794  0.707791082  0.458608006
     0.416734543  0.708235107  0.958031934
     0.416687247  0.958194422  0.458385781
     0.416659975  0.958272500  0.958327705
     0.583240320  0.208470508  0.458363284
     0.583306129  0.208295685  0.958336582
     0.583208249  0.458583015  0.456253743
     0.583280023  0.458691143  0.957168694
     0.583482416  0.707901217  0.458929322
     0.583410765  0.708338592  0.958110674
     0.583341574  0.958266716  0.458371274
     0.583338019  0.958307283  0.958342675
     0.749846183  0.208489254  0.458363662
     0.749945448  0.208394166  0.958256274
     0.749631087  0.458679246  0.458895773
[...]
 196       0.003    -0.002    -0.004       1.205
 197       0.004     0.001    -0.016       0.160
 198       0.001     0.000    -0.001       0.702
 199      -0.005    -0.000    -0.007      -0.603
 200       0.001    -0.001    -0.002       1.042
 201       0.010    -0.002     0.013      -0.853
 202       0.006    -0.002    -0.008       1.067
 203       0.029    -0.007     0.041      -0.880
 204      -0.009    -0.000    -0.018      -0.469
 205      -0.085    -0.084    -0.166      -0.007
 206       0.002     0.000    -0.002       0.674
 207      -0.006    -0.002    -0.026      -0.158
 208      -0.004    -0.002     0.005       0.333
 209      -0.106    -0.100    -0.181      -0.033
 210       0.009     0.008    -0.016       0.098
 211      -0.179    -0.026     0.180       0.848
 212      -0.020    -0.014    -0.036      -0.159
 213      -2.256    -2.239    -3.149      -0.005
 214       0.004    -0.001    -0.004       1.147
 215      -0.009    -0.009    -0.027      -0.033
 216      -0.010     0.000    -0.019      -0.533
 217      -0.082    -0.081    -0.163      -0.005
 218       0.011     0.008    -0.025       0.109
 219      -0.006    -0.002    -0.023      -0.203
 220      -0.339    -0.298    -0.511      -0.081
 221       0.005    -0.001    -0.005       1.210
 222       0.007     0.006    -0.013       0.064
 223      -0.003    -0.002     0.004       0.358
 224      -0.167    -0.160    -0.262      -0.025
 225      -0.008    -0.002    -0.023      -0.259
 226      -0.320    -0.282    -0.496      -0.077
 227       0.004    -0.003    -0.008       0.749
 228      -0.024     0.020     0.024       1.823
 229       0.003     0.000    -0.003       0.798
 230       0.002     0.001    -0.009       0.186
 231      -0.001     0.001    -0.002      -0.807
 232      -0.005    -0.002    -0.016      -0.196
 233      -0.003    -0.003     0.007       0.042
 234       0.015     0.014    -0.017       0.085
 235      -0.003    -0.001     0.004       0.395
 236       0.006     0.003    -0.013       0.192
 237       0.001     0.000    -0.002       0.474
 238       0.003    -0.001    -0.006       0.683
 239       0.001     0.000    -0.002       0.265
 240      -0.009    -0.003    -0.010      -0.622
 241      -0.003    -0.002     0.003       0.425
 242       0.008    -0.006     0.011      -1.325
 243      -0.004    -0.003     0.007       0.213
 244      -0.101    -0.094    -0.181      -0.042
 245       0.002    -0.001    -0.003       0.905
 246      -0.002     0.001    -0.017      -0.190
 247       0.003     0.000    -0.003       0.843
 248      -0.029    -0.028    -0.045      -0.015
 249       0.004    -0.000    -0.007       0.645
 250       0.027    -0.006     0.040      -0.823
 251       0.008     0.002    -0.017       0.320
 252      -1.793    -1.766    -2.557      -0.011
 253      -0.003    -0.002     0.004       0.337
 254      -0.171    -0.164    -0.267      -0.027
 255       0.004    -0.002    -0.006       1.029
 256       0.003     0.002    -0.020       0.049
 257       0.007     0.002    -0.017       0.245
 258      -1.783    -1.757    -2.528      -0.010
 259       0.011     0.008    -0.025       0.122
 260      -0.004     0.004    -0.007      -1.294
 261      -0.007    -0.006    -0.052      -0.016
 262       0.004    -0.002    -0.005       1.052
 263       0.003     0.003    -0.018       0.031
 264      -0.019    -0.013    -0.035      -0.163
 265      -2.238    -2.221    -3.109      -0.005
 266       0.010     0.008    -0.017       0.162
 267      -0.002    -0.002     0.005       0.157
 268       0.008     0.007    -0.019       0.087
 269       0.002     0.001    -0.002       0.625
 270      -0.025    -0.022    -0.042      -0.051
 271       0.004    -0.003    -0.006       1.025
 272      -0.007    -0.005    -0.050      -0.027
 273       0.005    -0.004    -0.008       1.178
 274       0.024     0.022    -0.029       0.081
 275       0.001    -0.001    -0.002       1.111
 276       0.006     0.003    -0.008       0.360
 277       0.001    -0.000    -0.002       0.670
 278      -0.004    -0.000    -0.007      -0.638
 279      -0.003    -0.001     0.004       0.609
 280       0.003     0.001    -0.013       0.150
 281       0.005    -0.003    -0.006       1.272
 282       0.003     0.001    -0.027       0.074
 283       0.000     0.000    -0.002       0.150
 284       0.004    -0.001    -0.005       1.192
 285       0.001     0.000    -0.001       0.843
 286      -0.003    -0.001     0.003       0.520
 287      -0.002     0.000     0.003       0.915
 288       0.006     0.003    -0.006       0.533
 289       0.005    -0.003    -0.006       1.243
 290      -0.021    -0.020    -0.064      -0.018
 291       0.002    -0.000    -0.002       0.892
 292      -0.005     0.004     0.007       1.233
 293       0.002     0.001    -0.002       0.392
 294       0.008    -0.008     0.012      -1.371
 295      -0.003     0.002    -0.005      -1.085
 296       0.005     0.001    -0.017       0.202
 297      -0.008     0.000     0.009       0.845
 298      -0.202    -0.200    -0.348      -0.008
 299      -0.002     0.001     0.005       0.521
 300       0.017    -0.004     0.022      -0.952
 301      -0.004     0.000     0.004       0.940
 302       0.007     0.007    -0.008       0.030
 303       0.007     0.002    -0.007       0.765
 304      -0.219    -0.215    -0.352      -0.012
 305       0.009     0.006    -0.024       0.141
 306       1.078     0.845     1.139      -0.204
 307      -0.006     0.001     0.008       0.869
 308      -0.564    -0.563    -0.799      -0.002
 309      -0.004     0.000     0.006       0.823
 310       0.008     0.006    -0.010       0.118
 311      -0.029    -0.023    -0.061      -0.105
 312       0.128     0.033     0.133      -0.713
 313       0.017     0.015    -0.019       0.116
 314      -0.008    -0.001     0.008       0.833
 315       0.060     0.018     0.066      -0.639
 316       0.003     0.001    -0.003       0.806
 317       0.006    -0.005     0.008      -1.406
 318      -0.006     0.002     0.007       1.053
 319      -0.558    -0.558    -0.789      -0.000
 320      -0.003     0.003    -0.021      -0.309
 321      -0.044     0.002    -0.153      -0.297
 322      -0.003    -0.001     0.004       0.568
 323      -0.006    -0.004    -0.033      -0.068
 324       0.001     0.001    -0.002       0.259
 325      -0.011    -0.006    -0.017      -0.251
 326      -0.003    -0.001     0.003       0.541
 327       0.008    -0.008     0.012      -1.408
 328      -0.004    -0.002     0.007       0.254
 329       0.009     0.007    -0.034       0.043
 330      -0.002     0.000     0.002       0.873
 331       0.006     0.002    -0.006       0.555
 332       0.001     0.001    -0.001       0.076
 333       0.004    -0.000    -0.005       0.891
 334      -0.006     0.002    -0.008      -0.951
 335       0.003     0.002    -0.021       0.058
 336      -0.002     0.000     0.007       0.333
 337       0.018    -0.007     0.021      -1.219
 338       0.001     0.001    -0.001       0.246
 339      -0.003     0.003    -0.007      -0.778
 340       0.002    -0.001    -0.004       1.010
 341      -0.041    -0.038    -0.068      -0.053
 342      -0.007     0.004     0.010       1.233
 343       0.088     0.057     0.108      -0.291
 344      -0.030    -0.024    -0.062      -0.091
 345       0.130     0.034     0.135      -0.708
 346      -0.003     0.001    -0.005      -0.746
 347      -0.099    -0.098    -0.143      -0.008
 348      -0.003     0.000     0.007       0.368
 349       0.020    -0.006     0.022      -1.213
 350       0.008     0.006    -0.024       0.087
 351       1.058     0.832     1.119      -0.202
 352      -0.014     0.011     0.014       1.716
 353       0.403    -0.142     0.430      -1.266
 354      -0.004    -0.001     0.005       0.568
 355       0.012    -0.010     0.013      -1.766
 356      -0.003     0.000     0.007       0.400
 357       0.017    -0.008     0.021      -1.217
 358      -0.014     0.011     0.015       1.695
 359       0.384    -0.158     0.411      -1.319
 360      -0.002     0.001    -0.022      -0.178
 361      -0.060    -0.008    -0.154      -0.335
 362      -0.004    -0.001     0.004       0.707
 363      -0.008     0.007     0.008       1.871
 364      -0.002     0.000    -0.004      -0.571
 365      -0.096    -0.093    -0.134      -0.025
 366      -0.008    -0.002     0.008       0.782
 367       0.059     0.015     0.064      -0.683
 368      -0.004    -0.000     0.006       0.522
 369      -0.015     0.013     0.017       1.639
 370       0.002     0.001    -0.002       0.482
 371       0.001    -0.001    -0.009       0.344
 372       0.001     0.000    -0.001       0.480
 373      -0.003     0.001     0.005       0.735
 374       0.004    -0.003    -0.006       1.228
 375       0.004     0.004    -0.016       0.025
 376      -0.004    -0.001     0.005       0.617
 377       0.007     0.006    -0.010       0.116
 378      -0.001    -0.000     0.001       0.285
 379      -0.004     0.002    -0.005      -1.161
 380      -0.002    -0.001     0.003       0.111
 381      -0.001    -0.001     0.002       0.113
 382       0.005     0.002    -0.008       0.395
 383       0.004     0.000    -0.007       0.559
 384      -0.008     0.004     0.009       1.437
 385      -0.006     0.003     0.008       1.178
 386       0.002    -0.001    -0.004       0.830
 387      -0.002     0.000     0.002       1.050
 388       0.004     0.002    -0.004       0.523
 389       0.003     0.002    -0.003       0.395
 390       0.010    -0.009     0.012      -1.596
 391       0.008    -0.006     0.011      -1.332
 392      -0.019     0.014     0.019       1.738
 393       0.019    -0.002     0.025      -0.874
 394       0.005     0.003    -0.006       0.326
 395       0.004    -0.004     0.005      -1.586
 396       0.007     0.005    -0.007       0.345
 397      -0.005     0.003     0.007       1.369
 398       0.028     0.023    -0.031       0.158
 399       0.020    -0.014     0.021      -1.607
 400       0.086    -0.006     0.097      -0.944
 401      -0.197    -0.192    -0.334      -0.016
 402       0.010     0.006    -0.011       0.337
 403       0.002    -0.002    -0.014       0.292
 404       0.006     0.002    -0.012       0.352
 405      -0.007     0.004     0.008       1.275
 406       0.086    -0.005     0.097      -0.939
 407      -0.191    -0.186    -0.326      -0.017
 408      -0.297    -0.229    -0.452      -0.149
 409      -0.031     0.027     0.033       1.778
 410      -0.002     0.001    -0.023      -0.110
 411       0.007     0.003    -0.009       0.516
 412       0.005     0.004    -0.007       0.135
 413      -0.005     0.003     0.005       1.476
 414       0.060     0.020     0.067      -0.596
 415       0.013     0.010    -0.022       0.145
 416       0.018     0.016    -0.028       0.057
 417       0.013     0.011    -0.016       0.144
 418       0.003     0.002    -0.009       0.108
 419       0.004     0.003    -0.005       0.338
 420       0.003     0.001    -0.004       0.515
 421       0.001     0.000    -0.004       0.343
 422       0.001    -0.001    -0.022       0.075
 423       0.007     0.002    -0.009       0.514
 424       0.008     0.004    -0.012       0.299
 425       0.007     0.002    -0.008       0.621
 426       0.003     0.000    -0.003       0.923
 427      -0.002     0.000     0.002       1.067
 428       0.004     0.002    -0.005       0.426
 429       0.003     0.002    -0.004       0.321
 430      -0.010     0.007     0.013       1.283
 431       0.005    -0.001    -0.014       0.398
 432       0.004     0.003    -0.010       0.124
 433      -0.005     0.004     0.006       1.496
 434      -0.003     0.001     0.003       1.118
 435      -0.002     0.001     0.002       1.214
 436       0.008    -0.007     0.010      -1.494
 437      -0.001     0.001    -0.014      -0.111
 438       0.028     0.023    -0.032       0.164
 439       0.020    -0.014     0.022      -1.581
 440       0.017     0.013    -0.018       0.200
 441       0.017    -0.004     0.021      -0.998
 442       0.005     0.003    -0.005       0.308
 443       0.002     0.000    -0.006       0.345
 444       0.018     0.014    -0.019       0.211
 445       0.019    -0.003     0.023      -0.946
 446       0.090    -0.035     0.110      -1.137
 447       0.088     0.052     0.109      -0.335
 448       0.061     0.021     0.069      -0.581
 449       0.013     0.010    -0.023       0.156
 450       0.003     0.000    -0.011       0.266
 451       0.006     0.002    -0.007       0.581
 452       0.016     0.012    -0.019       0.228
 453       0.017    -0.004     0.022      -0.958
 454      -0.294    -0.227    -0.453      -0.148
 455      -0.031     0.027     0.032       1.799
 456       0.006     0.003    -0.034       0.077
 457      -0.011     0.010     0.013       1.595
 458       0.002    -0.000    -0.010       0.196
 459      -0.005     0.002     0.005       1.407
 460       0.009     0.007    -0.009       0.205
 461      -0.001     0.000    -0.013      -0.115
 462       0.006     0.004    -0.036       0.059
 463      -0.012     0.009     0.015       1.372
 464       0.005     0.004    -0.010       0.115
 465       0.005     0.003    -0.007       0.239
 466       0.003     0.001    -0.004       0.492
 467       0.003     0.001    -0.003       0.431
 468       0.003     0.001    -0.005       0.409
 469       0.003     0.001    -0.003       0.509
 470       0.007     0.002    -0.012       0.380
 471       0.006     0.000    -0.009       0.657
 472       0.003     0.001    -0.006       0.388
 473      -0.004     0.001     0.004       1.348
 474      -0.002    -0.000     0.003       0.634
 475      -0.002    -0.000     0.002       0.785
 476      -0.002     0.000     0.002       1.217
 477      -0.003     0.000     0.004       0.863
 478       0.006    -0.001    -0.006       1.189
 479       0.008     0.005    -0.012       0.212
 480      -0.004     0.000     0.004       0.902
 481       0.007     0.005    -0.008       0.242
 482      -0.001     0.000     0.002       0.991
 483      -0.002     0.000     0.004       0.621
 484       0.002     0.001    -0.003       0.457
 485       0.006     0.004    -0.007       0.300
 486       0.005    -0.001    -0.014       0.455
 487       0.021    -0.014     0.024      -1.422
 488      -0.004     0.002    -0.015      -0.372
 489       0.016     0.016    -0.018       0.007
 490       0.002     0.001    -0.003       0.449
 491       0.004    -0.004     0.006      -1.293
 492       0.005     0.000    -0.008       0.596
 493       0.020    -0.005     0.022      -1.099
 494       0.015     0.014    -0.019       0.065
 495       0.135     0.049     0.167      -0.517
 496      -0.012     0.010     0.015       1.474
 497       0.138     0.045     0.146      -0.637
 498      -0.004     0.001     0.005       0.986
 499       0.007     0.006    -0.009       0.161
 500       0.004    -0.004    -0.014       0.564
 501       0.014     0.012    -0.022       0.084
 502      -0.022     0.022     0.024       1.843
 503       1.152     0.925     1.212      -0.188
 504      -0.023    -0.016    -0.052      -0.137
 505       0.087    -0.004     0.095      -0.954
 506       0.004    -0.001    -0.007       0.708
 507       0.007     0.005    -0.010       0.131
 508       0.005     0.001    -0.006       0.659
 509       0.018    -0.005     0.022      -1.028
 510      -0.023    -0.015    -0.052      -0.162
 511       0.089    -0.002     0.096      -0.954
 512       0.006     0.002    -0.010       0.353
 513      -0.018     0.018     0.019       1.905
 514       0.003     0.001    -0.004       0.512
 515       0.004     0.002    -0.007       0.210
 516       0.002     0.001    -0.002       0.410
 517       0.005     0.003    -0.006       0.307
 518       0.007    -0.000    -0.008       0.858
 519      -0.014     0.012     0.014       1.841
 520       0.004     0.000    -0.004       0.893
 521       0.007     0.005    -0.009       0.217
 522       0.002     0.000    -0.002       0.703
 523      -0.003    -0.000     0.004       0.725
 524       0.001     0.000    -0.002       0.688
 525      -0.003    -0.000     0.003       0.757
 526      -0.004     0.000     0.004       0.966
 527      -0.007     0.006     0.009       1.570
 528       0.007    -0.001    -0.008       0.864
 529       0.020    -0.007     0.024      -1.111
 530       0.002     0.001    -0.002       0.413
 531      -0.006     0.004     0.006       1.545
 532       0.003     0.001    -0.004       0.678
 533       0.006     0.004    -0.006       0.205
 534       0.005     0.001    -0.012       0.306
 535       0.019    -0.013     0.022      -1.443
 536       0.014     0.009    -0.016       0.312
 537       0.153     0.059     0.156      -0.601
 538       0.005     0.001    -0.006       0.690
 539       0.016    -0.007     0.020      -1.105
 540      -0.005     0.000     0.005       1.024
 541       0.008     0.006    -0.010       0.150
 542       0.013     0.010    -0.015       0.231
 543       0.151     0.060     0.156      -0.585
 544       0.023    -0.022     0.025      -1.823
 545       1.168     0.938     1.229      -0.187
 546      -0.004     0.004     0.010       0.793
 547       0.016     0.014    -0.020       0.118
 548       0.004    -0.000    -0.005       0.858
 549       0.005     0.004    -0.010       0.065
 550      -0.012     0.010     0.015       1.473
 551       0.135     0.043     0.143      -0.643
 552       0.018    -0.013     0.023      -1.318
 553       0.102    -0.024     0.119      -1.060
 554       0.005     0.001    -0.008       0.578
 555      -0.012     0.012     0.012       1.918
 556       0.002     0.001    -0.003       0.369
 557      -0.004     0.004     0.005       1.534
 558       0.004    -0.004     0.009      -0.978
 559       0.014     0.013    -0.020       0.047
 560       0.008     0.001    -0.011       0.610
 561       0.019     0.017    -0.020       0.097
 562       0.002     0.001    -0.003       0.298
 563       0.005     0.003    -0.007       0.346
 564      -0.001     0.000     0.002       0.945
 565      -0.003    -0.000     0.003       0.679
 566       0.003    -0.001    -0.006       0.677
 567       0.006     0.005    -0.008       0.219
 568      -0.006    -0.001     0.006       0.857
 569       0.010     0.007    -0.011       0.251
 570      -0.001     0.000     0.002       1.123
 571      -0.003    -0.000     0.004       0.785
 572       0.650     0.562     0.767      -0.114
 573      -0.241    -0.036     0.400       0.512
 574     -14.802   -14.756   -25.709      -0.002
 575     -14.996   -14.950   -26.141      -0.002
 576       0.609     0.529     0.726      -0.110
 ---------------------------------------------------------------------



--------------------------------------------------------------------------------------------------------


     LOOP+:  cpu time 1230.6595: real time 1235.5982
    4ORBIT:  cpu time    0.0000: real time    0.0000

 total amount of memory used by VASP MPI-rank0   238698. kBytes
=======================================================================

   base      :      30000. kBytes
   nonlr-proj:       9221. kBytes
   fftplans  :      15014. kBytes
   grid      :      46644. kBytes
   one-center:        294. kBytes
   wavefun   :     137525. kBytes
 
  
  
 General timing and accounting informations for this job:
 ========================================================
  
                  Total CPU time used (sec):     1258.151
                            User time (sec):     1256.977
                          System time (sec):        1.174
                         Elapsed time (sec):     1267.325
  
                   Maximum memory used (kb):      434800.
                   Average memory used (kb):          N/A
  
                          Minor page faults:       191358
                          Major page faults:            0
                 Voluntary context switches:        13633
