 vasp.6.2.0 18Jan21 (build Apr 30 2021 19:00:08) gamma-only                     
  
 executed on             LinuxIFC date 2023.04.24  08:49:45
 running on  192 total cores
 distrk:  each k-point on  192 cores,    1 groups
 distr:  one band on NCORE=  48 cores,    4 groups


--------------------------------------------------------------------------------------------------------


 INCAR:
   SYSTEM = Diamond
   PREC = Normal
   ISTART = 0
   ICHARG = 2
   ISPIN = 2
   MAGMOM = 61*0.0  63*0.0  1*1.5  3*1.5
   NPAR = 4
   ENCUT = 600
   NELM = 1000
   NELMIN = 4
   EDIFF = 1E-06
   LREAL = Auto
   EDIFFG = -1E-02
   NSW = 500
   IBRION = 2
   ISIF = 2
   ISYM = 3
   POTIM = 0.5
   ISMEAR = 0
   SIGMA = 0.05
   NEDOS = 1000
   LWAVE = T
   LCHARG = T
   LVHAR = F
   LELF = F
   ALGO = Damped
   LDIAG = .False.
   TIME = 0.4
   LHFCALC = T
   HFSCREEN = 0.2
   AEXX = 0.32
   PRECFOCK = Fast
   GGA = PE
   LFOCKACE = T
   LSUBROT = .FALSE.
   NKREDX = 1
   NKREDY = 1
   NKREDZ = 1
   LHYPERFINE = T
   LEFG = T

 POTCAR:    PAW_PBE B 06Sep2000                   
 POTCAR:    PAW_PBE N 08Apr2002                   
 POTCAR:    PAW_PBE C 08Apr2002                   
 POTCAR:    PAW_PBE B 06Sep2000                   
 -----------------------------------------------------------------------------
|                                                                             |
|           W    W    AA    RRRRR   N    N  II  N    N   GGGG   !!!           |
|           W    W   A  A   R    R  NN   N  II  NN   N  G    G  !!!           |
|           W    W  A    A  R    R  N N  N  II  N N  N  G       !!!           |
|           W WW W  AAAAAA  RRRRR   N  N N  II  N  N N  G  GGG   !            |
|           WW  WW  A    A  R   R   N   NN  II  N   NN  G    G                |
|           W    W  A    A  R    R  N    N  II  N    N   GGGG   !!!           |
|                                                                             |
|     For optimal performance we recommend to set                             |
|       NCORE = 2 up to number-of-cores-per-socket                            |
|     NCORE specifies how many cores store one orbital (NPAR=cpu/NCORE).      |
|     This setting can greatly improve the performance of VASP for DFT.       |
|     The default, NCORE=1 might be grossly inefficient on modern             |
|     multi-core architectures or massively parallel machines. Do your        |
|     own testing! More info at https://www.vasp.at/wiki/index.php/NCORE      |
|     Unfortunately you need to use the default for GW and RPA                |
|     calculations (for HF NCORE is supported but not extensively tested      |
|     yet).                                                                   |
|                                                                             |
 -----------------------------------------------------------------------------

 POTCAR:    PAW_PBE B 06Sep2000                   
   VRHFIN =B: s2p1                                                                                  
   LEXCH  = PE                                                                                      
   EATOM  =    71.1703 eV,    5.2309 Ry                                                             
                                                                                                    
   TITEL  = PAW_PBE B 06Sep2000                                                                     
   LULTRA =        F    use ultrasoft PP ?                                                          
   IUNSCR =        1    unscreen: 0-lin 1-nonlin 2-no                                               
   RPACOR =    1.200    partial core radius                                                         
   POMASS =   10.811; ZVAL   =    3.000    mass and valenz                                          
   RCORE  =    1.700    outmost cutoff radius                                                       
   RWIGS  =    1.710; RWIGS  =    0.905    wigner-seitz radius (au A)                               
   ENMAX  =  318.614; ENMIN  =  238.960 eV                                                          
   ICORE  =        2    local potential                                                             
   LCOR   =        T    correct aug charges                                                         
   LPAW   =        T    paw PP                                                                      
   EAUG   =  535.514                                                                                
   DEXC   =    0.000                                                                                
   RMAX   =    1.732    core radius for proj-oper                                                   
   RAUG   =    1.300    factor for augmentation sphere                                              
   RDEP   =    1.757    radius for radial grids                                                     
   RDEPT  =    1.436    core radius for aug-charge                                                  
                                                                                                    
   Atomic configuration                                                                             
    4 entries                                                                                       
     n  l   j            E        occ.                                                              
     1  0  0.50      -180.5896   2.0000                                                             
     2  0  0.50        -9.4431   2.0000                                                             
     2  1  0.50        -3.6068   1.0000                                                             
     3  2  1.50        -4.0817   0.0000                                                             
   Description                                                                                      
     l       E           TYP  RCUT    TYP  RCUT                                                     
     0     -9.4430752     23  1.500                                                                 
     0      0.8675899     23  1.500                                                                 
     1     -3.6067955     23  1.700                                                                 
     1      6.1086146     23  1.700                                                                 
     2     -4.0817478      7  1.700                                                                 
  local pseudopotential read in
  partial core-charges read in
  partial kinetic energy density read in
  atomic valenz-charges read in
  non local Contribution for L=           0  read in
    real space projection operators read in
  non local Contribution for L=           0  read in
    real space projection operators read in
  non local Contribution for L=           1  read in
    real space projection operators read in
  non local Contribution for L=           1  read in
    real space projection operators read in
    PAW grid and wavefunctions read in
 
   number of l-projection  operators is LMAX  =           4
   number of lm-projection operators is LMMAX =           8
 
 POTCAR:    PAW_PBE N 08Apr2002                   
   VRHFIN =N: s2p3                                                                                  
   LEXCH  = PE                                                                                      
   EATOM  =   264.5486 eV,   19.4438 Ry                                                             
                                                                                                    
   TITEL  = PAW_PBE N 08Apr2002                                                                     
   LULTRA =        F    use ultrasoft PP ?                                                          
   IUNSCR =        1    unscreen: 0-lin 1-nonlin 2-no                                               
   RPACOR =    1.200    partial core radius                                                         
   POMASS =   14.001; ZVAL   =    5.000    mass and valenz                                          
   RCORE  =    1.500    outmost cutoff radius                                                       
   RWIGS  =    1.400; RWIGS  =    0.741    wigner-seitz radius (au A)                               
   ENMAX  =  400.000; ENMIN  =  300.000 eV                                                          
   ICORE  =        2    local potential                                                             
   LCOR   =        T    correct aug charges                                                         
   LPAW   =        T    paw PP                                                                      
   EAUG   =  627.112                                                                                
   DEXC   =    0.000                                                                                
   RMAX   =    1.529    core radius for proj-oper                                                   
   RAUG   =    1.300    factor for augmentation sphere                                              
   RDEP   =    1.514    radius for radial grids                                                     
   RDEPT  =    1.338    core radius for aug-charge                                                  
                                                                                                    
   Atomic configuration                                                                             
    4 entries                                                                                       
     n  l   j            E        occ.                                                              
     1  0  0.50      -384.7179   2.0000                                                             
     2  0  0.50       -18.5828   2.0000                                                             
     2  1  0.50        -7.0898   3.0000                                                             
     3  2  1.50        -6.8029   0.0000                                                             
   Description                                                                                      
     l       E           TYP  RCUT    TYP  RCUT                                                     
     0    -18.5828119     23  1.200                                                                 
     0    -13.5018863     23  1.200                                                                 
     1     -7.0897853     23  1.500                                                                 
     1      9.5240782     23  1.500                                                                 
     2     -6.8029130      7  1.500                                                                 
  local pseudopotential read in
  partial core-charges read in
  partial kinetic energy density read in
  atomic valenz-charges read in
  non local Contribution for L=           0  read in
    real space projection operators read in
  non local Contribution for L=           0  read in
    real space projection operators read in
  non local Contribution for L=           1  read in
    real space projection operators read in
  non local Contribution for L=           1  read in
    real space projection operators read in
    PAW grid and wavefunctions read in
 
   number of l-projection  operators is LMAX  =           4
   number of lm-projection operators is LMMAX =           8
 
 POTCAR:    PAW_PBE C 08Apr2002                   
   VRHFIN =C: s2p2                                                                                  
   LEXCH  = PE                                                                                      
   EATOM  =   147.1560 eV,   10.8157 Ry                                                             
                                                                                                    
   TITEL  = PAW_PBE C 08Apr2002                                                                     
   LULTRA =        F    use ultrasoft PP ?                                                          
   IUNSCR =        1    unscreen: 0-lin 1-nonlin 2-no                                               
   RPACOR =    1.200    partial core radius                                                         
   POMASS =   12.011; ZVAL   =    4.000    mass and valenz                                          
   RCORE  =    1.500    outmost cutoff radius                                                       
   RWIGS  =    1.630; RWIGS  =    0.863    wigner-seitz radius (au A)                               
   ENMAX  =  400.000; ENMIN  =  300.000 eV                                                          
   ICORE  =        2    local potential                                                             
   LCOR   =        T    correct aug charges                                                         
   LPAW   =        T    paw PP                                                                      
   EAUG   =  644.873                                                                                
   DEXC   =    0.000                                                                                
   RMAX   =    1.529    core radius for proj-oper                                                   
   RAUG   =    1.300    factor for augmentation sphere                                              
   RDEP   =    1.501    radius for radial grids                                                     
   RDEPT  =    1.300    core radius for aug-charge                                                  
                                                                                                    
   Atomic configuration                                                                             
    4 entries                                                                                       
     n  l   j            E        occ.                                                              
     1  0  0.50      -273.3789   2.0000                                                             
     2  0  0.50       -13.7508   2.0000                                                             
     2  1  0.50        -5.2854   2.0000                                                             
     3  2  1.50        -5.4423   0.0000                                                             
   Description                                                                                      
     l       E           TYP  RCUT    TYP  RCUT                                                     
     0    -13.7508458     23  1.200                                                                 
     0     -8.2022199     23  1.200                                                                 
     1     -5.2854383     23  1.500                                                                 
     1     34.0145650     23  1.500                                                                 
     2     -5.4423304      7  1.500                                                                 
  local pseudopotential read in
  partial core-charges read in
  partial kinetic energy density read in
  atomic valenz-charges read in
  non local Contribution for L=           0  read in
    real space projection operators read in
  non local Contribution for L=           0  read in
    real space projection operators read in
  non local Contribution for L=           1  read in
    real space projection operators read in
  non local Contribution for L=           1  read in
    real space projection operators read in
    PAW grid and wavefunctions read in
 
   number of l-projection  operators is LMAX  =           4
   number of lm-projection operators is LMMAX =           8
 
 POTCAR:    PAW_PBE B 06Sep2000                   
   VRHFIN =B: s2p1                                                                                  
   LEXCH  = PE                                                                                      
   EATOM  =    71.1703 eV,    5.2309 Ry                                                             
                                                                                                    
   TITEL  = PAW_PBE B 06Sep2000                                                                     
   LULTRA =        F    use ultrasoft PP ?                                                          
   IUNSCR =        1    unscreen: 0-lin 1-nonlin 2-no                                               
   RPACOR =    1.200    partial core radius                                                         
   POMASS =   10.811; ZVAL   =    3.000    mass and valenz                                          
   RCORE  =    1.700    outmost cutoff radius                                                       
   RWIGS  =    1.710; RWIGS  =    0.905    wigner-seitz radius (au A)                               
   ENMAX  =  318.614; ENMIN  =  238.960 eV                                                          
   ICORE  =        2    local potential                                                             
   LCOR   =        T    correct aug charges                                                         
   LPAW   =        T    paw PP                                                                      
   EAUG   =  535.514                                                                                
   DEXC   =    0.000                                                                                
   RMAX   =    1.732    core radius for proj-oper                                                   
   RAUG   =    1.300    factor for augmentation sphere                                              
   RDEP   =    1.757    radius for radial grids                                                     
   RDEPT  =    1.436    core radius for aug-charge                                                  
                                                                                                    
   Atomic configuration                                                                             
    4 entries                                                                                       
     n  l   j            E        occ.                                                              
     1  0  0.50      -180.5896   2.0000                                                             
     2  0  0.50        -9.4431   2.0000                                                             
     2  1  0.50        -3.6068   1.0000                                                             
     3  2  1.50        -4.0817   0.0000                                                             
   Description                                                                                      
     l       E           TYP  RCUT    TYP  RCUT                                                     
     0     -9.4430752     23  1.500                                                                 
     0      0.8675899     23  1.500                                                                 
     1     -3.6067955     23  1.700                                                                 
     1      6.1086146     23  1.700                                                                 
     2     -4.0817478      7  1.700                                                                 
  local pseudopotential read in
  partial core-charges read in
  partial kinetic energy density read in
  atomic valenz-charges read in
  non local Contribution for L=           0  read in
    real space projection operators read in
  non local Contribution for L=           0  read in
    real space projection operators read in
  non local Contribution for L=           1  read in
    real space projection operators read in
  non local Contribution for L=           1  read in
    real space projection operators read in
    PAW grid and wavefunctions read in
 
   number of l-projection  operators is LMAX  =           4
   number of lm-projection operators is LMMAX =           8
 
 Optimization of the real space projectors (new method)

 maximal supplied QI-value         = 22.11
 optimisation between [QCUT,QGAM] = [ 12.38, 24.98] = [ 42.93,174.79] Ry 
 Optimized for a Real-space Cutoff    1.00 Angstroem

   l    n(q)    QCUT    max X(q) W(low)/X(q) W(high)/X(q)  e(spline) 
   0      7    12.381    53.033    0.39E-03    0.69E-03    0.10E-06
   0      7    12.381    34.740    0.39E-03    0.68E-03    0.10E-06
   1      7    12.381    30.949    0.24E-03    0.68E-03    0.68E-07
   1      7    12.381    19.518    0.22E-03    0.63E-03    0.65E-07
 Optimization of the real space projectors (new method)

 maximal supplied QI-value         = 25.13
 optimisation between [QCUT,QGAM] = [ 12.32, 24.88] = [ 42.47,173.37] Ry 
 Optimized for a Real-space Cutoff    1.20 Angstroem

   l    n(q)    QCUT    max X(q) W(low)/X(q) W(high)/X(q)  e(spline) 
   0      9    12.315    79.467    0.14E-03    0.22E-04    0.37E-06
   0      9    12.315    66.151    0.14E-03    0.23E-04    0.36E-06
   1      8    12.315    22.077    0.30E-03    0.54E-03    0.45E-06
   1      8    12.315    15.894    0.30E-03    0.55E-03    0.45E-06
 Optimization of the real space projectors (new method)

 maximal supplied QI-value         = 25.13
 optimisation between [QCUT,QGAM] = [ 12.32, 24.88] = [ 42.47,173.37] Ry 
 Optimized for a Real-space Cutoff    1.06 Angstroem

   l    n(q)    QCUT    max X(q) W(low)/X(q) W(high)/X(q)  e(spline) 
   0      8    12.315   115.676    0.34E-03    0.18E-03    0.23E-06
   0      8    12.315    87.132    0.34E-03    0.18E-03    0.22E-06
   1      7    12.315     4.429    0.45E-03    0.12E-03    0.18E-06
   1      7    12.315     2.733    0.35E-03    0.97E-04    0.15E-06
 Optimization of the real space projectors (new method)

 maximal supplied QI-value         = 22.11
 optimisation between [QCUT,QGAM] = [ 12.38, 24.98] = [ 42.93,174.79] Ry 
 Optimized for a Real-space Cutoff    1.00 Angstroem

   l    n(q)    QCUT    max X(q) W(low)/X(q) W(high)/X(q)  e(spline) 
   0      7    12.381    53.033    0.39E-03    0.69E-03    0.10E-06
   0      7    12.381    34.740    0.39E-03    0.68E-03    0.10E-06
   1      7    12.381    30.949    0.24E-03    0.68E-03    0.68E-07
   1      7    12.381    19.518    0.22E-03    0.63E-03    0.65E-07
  PAW_PBE B 06Sep2000                   :
 energy of atom  1       EATOM=  -71.1703
 kinetic energy error for atom=    0.0007 (will be added to EATOM!!)
  PAW_PBE N 08Apr2002                   :
 energy of atom  2       EATOM= -264.5486
 kinetic energy error for atom=    0.0103 (will be added to EATOM!!)
  PAW_PBE C 08Apr2002                   :
 energy of atom  3       EATOM= -147.1560
 kinetic energy error for atom=    0.0057 (will be added to EATOM!!)
  PAW_PBE B 06Sep2000                   :
 energy of atom  4       EATOM=  -71.1703
 kinetic energy error for atom=    0.0007 (will be added to EATOM!!)
 
 
 POSCAR: Autosave
  positions in cartesian coordinates
  No initial velocities read in
 exchange correlation table for  LEXCH =        8
   RHO(1)=    0.500       N(1)  =     2000
   RHO(2)=  100.500       N(2)  =     4000
 


--------------------------------------------------------------------------------------------------------


 ion  position               nearest neighbor table
   1  0.042  0.083  0.500-  62 1.44 117 1.44  63 1.44
   2  0.042  0.208  0.500-  63 1.44  64 1.44 118 1.44
   3  0.042  0.333  0.500-  64 1.44 119 1.44  65 1.44
   4  0.042  0.458  0.500-  65 1.44  66 1.44 120 1.44
   5  0.042  0.583  0.500-  66 1.44 121 1.44  67 1.44
   6  0.042  0.708  0.500-  67 1.44 122 1.44  68 1.44
   7  0.042  0.833  0.500-  68 1.44  69 1.44 123 1.44
   8  0.042  0.958  0.500-  69 1.44  62 1.44 124 1.44
   9  0.167  0.083  0.500-  70 1.44  71 1.44  62 1.44
  10  0.167  0.208  0.500-  71 1.44  63 1.44  72 1.44
  11  0.167  0.333  0.500-  72 1.44  73 1.44  64 1.44
  12  0.167  0.458  0.500-  73 1.44  74 1.44  65 1.44
  13  0.167  0.583  0.500-  74 1.44  66 1.44  75 1.44
  14  0.167  0.708  0.500-  75 1.44  76 1.44  67 1.44
  15  0.167  0.833  0.500-  76 1.44  68 1.44  77 1.44
  16  0.167  0.958  0.500-  77 1.44  69 1.44  70 1.44
  17  0.292  0.083  0.500-  78 1.44  70 1.44  79 1.44
  18  0.292  0.208  0.500-  79 1.44  80 1.44  71 1.44
  19  0.292  0.333  0.500-  80 1.44  81 1.44  72 1.44
  20  0.292  0.458  0.500-  81 1.44  73 1.44  82 1.44
  21  0.292  0.583  0.500-  82 1.44  83 1.44  74 1.44
  22  0.292  0.708  0.500-  83 1.44  75 1.44  84 1.44
  23  0.292  0.833  0.500-  84 1.44  76 1.44  85 1.44
  24  0.292  0.958  0.500-  85 1.44  78 1.44  77 1.44
  25  0.417  0.083  0.500-  86 1.44  87 1.44  78 1.44
  26  0.417  0.208  0.500-  87 1.44  88 1.44  79 1.44
  27  0.417  0.583  0.500-  89 1.44  82 1.44  90 1.44
  28  0.417  0.708  0.500-  90 1.44  83 1.44  91 1.44
  29  0.417  0.833  0.500-  91 1.44  92 1.44  84 1.44
  30  0.417  0.958  0.500-  92 1.44  85 1.44  86 1.44
  31  0.542  0.083  0.500-  93 1.44  86 1.44  94 1.44
  32  0.542  0.208  0.500-  94 1.44  87 1.44  95 1.44
  33  0.542  0.333  0.500-  95 1.44  96 1.44  88 1.44
  34  0.542  0.583  0.500-  97 1.44  89 1.44  98 1.44
  35  0.542  0.708  0.500-  98 1.44  99 1.44  90 1.44
  36  0.542  0.833  0.500-  99 1.44  91 1.44 100 1.44
  37  0.542  0.958  0.500- 100 1.44  93 1.44  92 1.44
  38  0.667  0.083  0.500- 101 1.44  93 1.44 102 1.44
  39  0.667  0.208  0.500- 102 1.44 103 1.44  94 1.44
  40  0.667  0.333  0.500- 103 1.44  95 1.44 104 1.44
  41  0.667  0.458  0.500- 104 1.44  96 1.44 105 1.44
  42  0.667  0.583  0.500- 105 1.44 106 1.44  97 1.44
  43  0.667  0.708  0.500- 106 1.44  98 1.44 107 1.44
  44  0.667  0.833  0.500- 107 1.44 108 1.44  99 1.44
  45  0.667  0.958  0.500- 108 1.44 101 1.44 100 1.44
  46  0.792  0.083  0.500- 109 1.44 110 1.44 101 1.44
  47  0.792  0.208  0.500- 110 1.44 102 1.44 111 1.44
  48  0.792  0.333  0.500- 111 1.44 103 1.44 112 1.44
  49  0.792  0.458  0.500- 112 1.44 113 1.44 104 1.44
  50  0.792  0.583  0.500- 113 1.44 105 1.44 114 1.44
  51  0.792  0.708  0.500- 114 1.44 115 1.44 106 1.44
  52  0.792  0.833  0.500- 115 1.44 116 1.44 107 1.44
  53  0.792  0.958  0.500- 116 1.44 108 1.44 109 1.44
  54  0.917  0.083  0.500- 117 1.44 109 1.44 118 1.44
  55  0.917  0.208  0.500- 118 1.44 110 1.44 119 1.44
  56  0.917  0.333  0.500- 119 1.44 120 1.44 111 1.44
  57  0.917  0.458  0.500- 120 1.44 112 1.44 121 1.44
  58  0.917  0.583  0.500- 121 1.44 122 1.44 113 1.44
  59  0.917  0.708  0.500- 122 1.44 114 1.44 123 1.44
  60  0.917  0.833  0.500- 123 1.44 115 1.44 124 1.44
  61  0.917  0.958  0.500- 124 1.44 117 1.44 116 1.44
  62  0.083  0.042  0.500-   1 1.44   8 1.44   9 1.44
  63  0.083  0.167  0.500-   2 1.44  10 1.44   1 1.44
  64  0.083  0.292  0.500-   3 1.44   2 1.44  11 1.44
  65  0.083  0.417  0.500-   4 1.44  12 1.44   3 1.44
  66  0.083  0.542  0.500-   5 1.44  13 1.44   4 1.44
  67  0.083  0.667  0.500-   6 1.44   5 1.44  14 1.44
  68  0.083  0.792  0.500-   7 1.44  15 1.44   6 1.44
  69  0.083  0.917  0.500-   8 1.44  16 1.44   7 1.44
  70  0.208  0.042  0.500-   9 1.44  17 1.44  16 1.44
  71  0.208  0.167  0.500-  10 1.44   9 1.44  18 1.44
  72  0.208  0.292  0.500-  11 1.44  19 1.44  10 1.44
  73  0.208  0.417  0.500-  12 1.44  11 1.44  20 1.44
  74  0.208  0.542  0.500-  13 1.44  12 1.44  21 1.44
  75  0.208  0.667  0.500-  14 1.44  22 1.44  13 1.44
  76  0.208  0.792  0.500-  15 1.44  23 1.44  14 1.44
  77  0.208  0.917  0.500-  16 1.44  15 1.44  24 1.44
  78  0.333  0.042  0.500-  17 1.44  24 1.44  25 1.44
  79  0.333  0.167  0.500-  18 1.44  17 1.44  26 1.44
  80  0.333  0.292  0.500-  19 1.44 126 1.44  18 1.44
  81  0.333  0.417  0.500-  20 1.44  19 1.44 127 1.44
  82  0.333  0.542  0.500-  21 1.44  27 1.44  20 1.44
  83  0.333  0.667  0.500-  22 1.44  21 1.44  28 1.44
  84  0.333  0.792  0.500-  23 1.44  22 1.44  29 1.44
  85  0.333  0.917  0.500-  24 1.44  30 1.44  23 1.44
  86  0.458  0.042  0.500-  25 1.44  31 1.44  30 1.44
  87  0.458  0.167  0.500-  26 1.44  32 1.44  25 1.44
  88  0.458  0.292  0.500- 126 1.44  26 1.44  33 1.44
  89  0.458  0.542  0.500-  27 1.44  34 1.44 127 1.44
  90  0.458  0.667  0.500-  28 1.44  27 1.44  35 1.44
  91  0.458  0.792  0.500-  29 1.44  36 1.44  28 1.44
  92  0.458  0.917  0.500-  30 1.44  29 1.44  37 1.44
  93  0.583  0.042  0.500-  31 1.44  38 1.44  37 1.44
  94  0.583  0.167  0.500-  32 1.44  31 1.44  39 1.44
  95  0.583  0.292  0.500-  33 1.44  40 1.44  32 1.44
  96  0.583  0.417  0.500- 128 1.44  41 1.44  33 1.44
  97  0.583  0.542  0.500-  34 1.44 128 1.44  42 1.44
  98  0.583  0.667  0.500-  35 1.44  43 1.44  34 1.44
  99  0.583  0.792  0.500-  36 1.44  35 1.44  44 1.44
 100  0.583  0.917  0.500-  37 1.44  45 1.44  36 1.44
 101  0.708  0.042  0.500-  38 1.44  45 1.44  46 1.44
 102  0.708  0.167  0.500-  39 1.44  47 1.44  38 1.44
 103  0.708  0.292  0.500-  40 1.44  48 1.44  39 1.44
 104  0.708  0.417  0.500-  41 1.44  40 1.44  49 1.44
 105  0.708  0.542  0.500-  42 1.44  50 1.44  41 1.44
 106  0.708  0.667  0.500-  43 1.44  42 1.44  51 1.44
 107  0.708  0.792  0.500-  44 1.44  52 1.44  43 1.44
 108  0.708  0.917  0.500-  45 1.44  44 1.44  53 1.44
 109  0.833  0.042  0.500-  46 1.44  54 1.44  53 1.44
 110  0.833  0.167  0.500-  47 1.44  46 1.44  55 1.44
 111  0.833  0.292  0.500-  48 1.44  47 1.44  56 1.44
 112  0.833  0.417  0.500-  49 1.44  57 1.44  48 1.44
 113  0.833  0.542  0.500-  50 1.44  49 1.44  58 1.44
 114  0.833  0.667  0.500-  51 1.44  59 1.44  50 1.44
 115  0.833  0.792  0.500-  52 1.44  60 1.44  51 1.44
 116  0.833  0.917  0.500-  53 1.44  52 1.44  61 1.44
 117  0.958  0.042  0.500-  54 1.44   1 1.44  61 1.44
 118  0.958  0.167  0.500-  55 1.44  54 1.44   2 1.44
 119  0.958  0.292  0.500-  56 1.44   3 1.44  55 1.44
 120  0.958  0.417  0.500-  57 1.44  56 1.44   4 1.44
 121  0.958  0.542  0.500-  58 1.44   5 1.44  57 1.44
 122  0.958  0.667  0.500-  59 1.44   6 1.44  58 1.44
 123  0.958  0.792  0.500-  60 1.44  59 1.44   7 1.44
 124  0.958  0.917  0.500-  61 1.44   8 1.44  60 1.44
 125  0.458  0.417  0.500- 127 1.44 128 1.44 126 1.44
 126  0.417  0.333  0.500-  88 1.44  80 1.44 125 1.44
 127  0.417  0.458  0.500- 125 1.44  89 1.44  81 1.44
 128  0.542  0.458  0.500-  96 1.44  97 1.44 125 1.44
 
  LATTYP: Found a hexagonal cell.
 ALAT       =    19.9439582038
 C/A-ratio  =     0.7520985682
  
  Lattice vectors:
  
 A1 = (   9.9719791019, -17.2719744565,   0.0000000000)
 A2 = (   9.9719791019,  17.2719744565,   0.0000000000)
 A3 = (   0.0000000000,   0.0000000000,  14.9998224099)


Analysis of symmetry for initial positions (statically):
=====================================================================
 Subroutine PRICEL returns:
 Original cell was already a primitive cell.
 

 Routine SETGRP: Setting up the symmetry group for a 
 hexagonal supercell.


 Subroutine GETGRP returns: Found 12 space group operations
 (whereof  2 operations were pure point group operations)
 out of a pool of 24 trial point group operations.


The static configuration has the point symmetry C_1h.
 The point group associated with its full space group is D_3h.


Analysis of symmetry for dynamics (positions and initial velocities):
=====================================================================
 Subroutine PRICEL returns:
 Original cell was already a primitive cell.
 

 Routine SETGRP: Setting up the symmetry group for a 
 hexagonal supercell.


 Subroutine GETGRP returns: Found 12 space group operations
 (whereof  2 operations were pure point group operations)
 out of a pool of 24 trial point group operations.


The dynamic configuration has the point symmetry C_1h.
 The point group associated with its full space group is D_3h.


Analysis of structural, dynamic, and magnetic symmetry:
=====================================================================
 Subroutine PRICEL returns:
 Original cell was already a primitive cell.
 

 Routine SETGRP: Setting up the symmetry group for a 
 hexagonal supercell.


 Subroutine GETGRP returns: Found 12 space group operations
 (whereof  2 operations were pure point group operations)
 out of a pool of 24 trial point group operations.


The overall configuration has the point symmetry C_1h.
 The point group associated with its full space group is D_3h.


 Subroutine INISYM returns: Found 12 space group operations
 (whereof  2 operations are pure point group operations),
 and found     1 'primitive' translations


----------------------------------------------------------------------------------------

                                     Primitive cell                                     

  volume of cell :    5167.0119

  direct lattice vectors                    reciprocal lattice vectors
     9.971979102-17.271974457  0.000000000     0.050140498 -0.028948630  0.000000000
     9.971979102 17.271974457  0.000000000     0.050140498  0.028948630  0.000000000
     0.000000000  0.000000000 14.999822410     0.000000000  0.000000000  0.066667456

  length of vectors
    19.943958204 19.943958204 14.999822410     0.057897260  0.057897260  0.066667456

  position of ions in fractional coordinates (direct lattice)
     0.041666667  0.083333333  0.500000000
     0.041666667  0.208333333  0.500000000
     0.041666667  0.333333333  0.500000000
     0.041666667  0.458333333  0.500000000
     0.041666667  0.583333333  0.500000000
     0.041666667  0.708333333  0.500000000
     0.041666667  0.833333333  0.500000000
     0.041666667  0.958333333  0.500000000
     0.166666667  0.083333333  0.500000000
     0.166666667  0.208333333  0.500000000
     0.166666667  0.333333333  0.500000000
     0.166666667  0.458333333  0.500000000
     0.166666667  0.583333333  0.500000000
     0.166666667  0.708333333  0.500000000
     0.166666667  0.833333333  0.500000000
     0.166666667  0.958333333  0.500000000
     0.291666667  0.083333333  0.500000000
     0.291666667  0.208333333  0.500000000
     0.291666667  0.333333333  0.500000000
     0.291666667  0.458333333  0.500000000
     0.291666667  0.583333333  0.500000000
     0.291666667  0.708333333  0.500000000
     0.291666667  0.833333333  0.500000000
     0.291666667  0.958333333  0.500000000
     0.416666667  0.083333333  0.500000000
     0.416666667  0.208333333  0.500000000
     0.416666667  0.583333333  0.500000000
     0.416666667  0.708333333  0.500000000
     0.416666667  0.833333333  0.500000000
     0.416666667  0.958333333  0.500000000
     0.541666667  0.083333333  0.500000000
     0.541666667  0.208333333  0.500000000
     0.541666667  0.333333333  0.500000000
     0.541666667  0.583333333  0.500000000
     0.541666667  0.708333333  0.500000000
     0.541666667  0.833333333  0.500000000
     0.541666667  0.958333333  0.500000000
     0.666666667  0.083333333  0.500000000
     0.666666667  0.208333333  0.500000000
     0.666666667  0.333333333  0.500000000
     0.666666667  0.458333333  0.500000000
     0.666666667  0.583333333  0.500000000
     0.666666667  0.708333333  0.500000000
     0.666666667  0.833333333  0.500000000
     0.666666667  0.958333333  0.500000000
     0.791666667  0.083333333  0.500000000
     0.791666667  0.208333333  0.500000000
     0.791666667  0.333333333  0.500000000
     0.791666667  0.458333333  0.500000000
     0.791666667  0.583333333  0.500000000
     0.791666667  0.708333333  0.500000000
     0.791666667  0.833333333  0.500000000
     0.791666667  0.958333333  0.500000000
     0.916666667  0.083333333  0.500000000
     0.916666667  0.208333333  0.500000000
     0.916666667  0.333333333  0.500000000
     0.916666667  0.458333333  0.500000000
     0.916666667  0.583333333  0.500000000
     0.916666667  0.708333333  0.500000000
     0.916666667  0.833333333  0.500000000
     0.916666667  0.958333333  0.500000000
     0.083333333  0.041666667  0.500000000
     0.083333333  0.166666667  0.500000000
     0.083333333  0.291666667  0.500000000
     0.083333333  0.416666667  0.500000000
     0.083333333  0.541666667  0.500000000
     0.083333333  0.666666667  0.500000000
     0.083333333  0.791666667  0.500000000
     0.083333333  0.916666667  0.500000000
     0.208333333  0.041666667  0.500000000
     0.208333333  0.166666667  0.500000000
     0.208333333  0.291666667  0.500000000
     0.208333333  0.416666667  0.500000000
     0.208333333  0.541666667  0.500000000
     0.208333333  0.666666667  0.500000000
     0.208333333  0.791666667  0.500000000
     0.208333333  0.916666667  0.500000000
     0.333333333  0.041666667  0.500000000
     0.333333333  0.166666667  0.500000000
     0.333333333  0.291666667  0.500000000
     0.333333333  0.416666667  0.500000000
     0.333333333  0.541666667  0.500000000
     0.333333333  0.666666667  0.500000000
     0.333333333  0.791666667  0.500000000
     0.333333333  0.916666667  0.500000000
     0.458333333  0.041666667  0.500000000
     0.458333333  0.166666667  0.500000000
     0.458333333  0.291666667  0.500000000
     0.458333333  0.541666667  0.500000000
     0.458333333  0.666666667  0.500000000
     0.458333333  0.791666667  0.500000000
     0.458333333  0.916666667  0.500000000
     0.583333333  0.041666667  0.500000000
     0.583333333  0.166666667  0.500000000
     0.583333333  0.291666667  0.500000000
     0.583333333  0.416666667  0.500000000
     0.583333333  0.541666667  0.500000000
     0.583333333  0.666666667  0.500000000
     0.583333333  0.791666667  0.500000000
     0.583333333  0.916666667  0.500000000
     0.708333333  0.041666667  0.500000000
     0.708333333  0.166666667  0.500000000
     0.708333333  0.291666667  0.500000000
     0.708333333  0.416666667  0.500000000
     0.708333333  0.541666667  0.500000000
     0.708333333  0.666666667  0.500000000
     0.708333333  0.791666667  0.500000000
     0.708333333  0.916666667  0.500000000
     0.833333333  0.041666667  0.500000000
     0.833333333  0.166666667  0.500000000
     0.833333333  0.291666667  0.500000000
     0.833333333  0.416666667  0.500000000
     0.833333333  0.541666667  0.500000000
     0.833333333  0.666666667  0.500000000
     0.833333333  0.791666667  0.500000000
     0.833333333  0.916666667  0.500000000
     0.958333333  0.041666667  0.500000000
     0.958333333  0.166666667  0.500000000
     0.958333333  0.291666667  0.500000000
     0.958333333  0.416666667  0.500000000
     0.958333333  0.541666667  0.500000000
     0.958333333  0.666666667  0.500000000
     0.958333333  0.791666667  0.500000000
     0.958333333  0.916666667  0.500000000
     0.458333333  0.416666667  0.500000000
     0.416666667  0.333333333  0.500000000
     0.416666667  0.458333333  0.500000000
     0.541666667  0.458333333  0.500000000

  ion indices of the primitive-cell ions
   primitive index   ion index
                 1           1
                 2           2
                 3           3
                 4           4
                 5           5
                 6           6
                 7           7
                 8           8
                 9           9
                10          10
                11          11
                12          12
                13          13
                14          14
                15          15
                16          16
                17          17
                18          18
                19          19
                20          20
                21          21
                22          22
                23          23
                24          24
                25          25
                26          26
                27          27
                28          28
                29          29
                30          30
                31          31
                32          32
                33          33
                34          34
                35          35
                36          36
                37          37
                38          38
                39          39
                40          40
                41          41
                42          42
                43          43
                44          44
                45          45
                46          46
                47          47
                48          48
                49          49
                50          50
                51          51
                52          52
                53          53
                54          54
                55          55
                56          56
                57          57
                58          58
                59          59
                60          60
                61          61
                62          62
                63          63
                64          64
                65          65
                66          66
                67          67
                68          68
                69          69
                70          70
                71          71
                72          72
                73          73
                74          74
                75          75
                76          76
                77          77
                78          78
                79          79
                80          80
                81          81
                82          82
                83          83
                84          84
                85          85
                86          86
                87          87
                88          88
                89          89
                90          90
                91          91
                92          92
                93          93
                94          94
                95          95
                96          96
                97          97
                98          98
                99          99
               100         100
               101         101
               102         102
               103         103
               104         104
               105         105
               106         106
               107         107
               108         108
               109         109
               110         110
               111         111
               112         112
               113         113
               114         114
               115         115
               116         116
               117         117
               118         118
               119         119
               120         120
               121         121
               122         122
               123         123
               124         124
               125         125
               126         126
               127         127
               128         128

----------------------------------------------------------------------------------------

 
 
 KPOINTS: kpoint mesh                             

Automatic generation of k-mesh.
 Grid dimensions read from file:
 generate k-points for:    1    1    1

 Generating k-lattice:

  Cartesian coordinates                     Fractional coordinates (reciprocal lattice)
     0.050140498 -0.028948630  0.000000000     1.000000000 -0.000000000  0.000000000
     0.050140498  0.028948630  0.000000000    -0.000000000  1.000000000  0.000000000
     0.000000000  0.000000000  0.066667456     0.000000000  0.000000000  1.000000000

  Length of vectors
     0.057897260  0.057897260  0.066667456

  Shift w.r.t. Gamma in fractional coordinates (k-lattice)
     0.000000000  0.000000000  0.000000000

 
 Subroutine IBZKPT returns following result:
 ===========================================
 
 Found      1 irreducible k-points:
 
 Following reciprocal coordinates:
            Coordinates               Weight
  0.000000  0.000000  0.000000      1.000000
 
 Following cartesian coordinates:
            Coordinates               Weight
  0.000000  0.000000  0.000000      1.000000
 
 
 Subroutine IBZKPT_HF returns following result:
 ==============================================
 
 Found      1 k-points in 1st BZ
 the following      1 k-points will be used (e.g. in the exchange kernel)
 Following reciprocal coordinates:   # in IRBZ
  0.000000  0.000000  0.000000    1.00000000   1 t-inv F


--------------------------------------------------------------------------------------------------------




 Dimension of arrays:
   k-points           NKPTS =      1   k-points in BZ     NKDIM =      1   number of bands    NBANDS=    324
   number of dos      NEDOS =   1000   number of ions     NIONS =    128
   non local maximal  LDIM  =      4   non local SUM 2l+1 LMDIM =      8
   total plane-waves  NPLWV = ******
   max r-space proj   IRMAX =   1846   max aug-charges    IRDMAX=   4110
   dimension x,y,z NGX =   120 NGY =  120 NGZ =   90
   dimension x,y,z NGXF=   240 NGYF=  240 NGZF=  180
   support grid    NGXF=   240 NGYF=  240 NGZF=  180
   ions per type =              61  63   1   3
   NGX,Y,Z   is equivalent  to a cutoff of  10.00, 10.00,  9.97 a.u.
   NGXF,Y,Z  is equivalent  to a cutoff of  20.01, 20.01, 19.95 a.u.

 SYSTEM =  Diamond                                 
 POSCAR =  Autosave                                

 Startparameter for this run:
   NWRITE =      2    write-flag & timer
   PREC   = normal    normal or accurate (medium, high low for compatibility)
   ISTART =      0    job   : 0-new  1-cont  2-samecut
   ICHARG =      2    charge: 1-file 2-atom 10-const
   ISPIN  =      2    spin polarized calculation?
   LNONCOLLINEAR =      F non collinear calculations
   LSORBIT =      F    spin-orbit coupling
   INIWAV =      1    electr: 0-lowe 1-rand  2-diag
   LASPH  =      F    aspherical Exc in radial PAW
   METAGGA=      F    non-selfconsistent MetaGGA calc.

 Electronic Relaxation 1
   ENCUT  =  600.0 eV  44.10 Ry    6.64 a.u.  39.83 39.83 29.96*2*pi/ulx,y,z
   ENINI  =  600.0     initial cutoff
   ENAUG  =  644.9 eV  augmentation charge cutoff
   NELM   =   1000;   NELMIN=  4; NELMDL= -5     # of ELM steps 
   EDIFF  = 0.1E-05   stopping-criterion for ELM
   LREAL  =      T    real-space projection
   NLSPLINE    = F    spline interpolate recip. space projectors
   LCOMPAT=      F    compatible to vasp.4.4
   GGA_COMPAT  = T    GGA compatible to vasp.4.4-vasp.4.6
   LMAXPAW     = -100 max onsite density
   LMAXMIX     =    2 max onsite mixed and CHGCAR
   VOSKOWN=      0    Vosko Wilk Nusair interpolation
   ROPT   =   -0.00050  -0.00050  -0.00050  -0.00050
 Ionic relaxation
   EDIFFG = -.1E-01   stopping-criterion for IOM
   NSW    =    500    number of steps for IOM
   NBLOCK =      1;   KBLOCK =    500    inner block; outer block 
   IBRION =      2    ionic relax: 0-MD 1-quasi-New 2-CG
   NFREE  =      1    steps in history (QN), initial steepest desc. (CG)
   ISIF   =      2    stress and relaxation
   IWAVPR =     11    prediction:  0-non 1-charg 2-wave 3-comb
   ISYM   =      3    0-nonsym 1-usesym 2-fastsym
   LCORR  =      T    Harris-Foulkes like correction to forces

   POTIM  = 0.5000    time-step for ionic-motion
   TEIN   =    0.0    initial temperature
   TEBEG  =    0.0;   TEEND  =   0.0 temperature during run
   SMASS  =  -3.00    Nose mass-parameter (am)
   estimated Nose-frequenzy (Omega)   =  0.10E-29 period in steps = 0.13E+47 mass=  -0.909E-26a.u.
   SCALEE = 1.0000    scale energy and forces
   NPACO  =    256;   APACO  = 16.0  distance and # of slots for P.C.
   PSTRESS=    0.0 pullay stress

  Mass of Ions in am
   POMASS =  10.81 14.00 12.01 10.81
  Ionic Valenz
   ZVAL   =   3.00  5.00  4.00  3.00
  Atomic Wigner-Seitz radii
   RWIGS  =  -1.00 -1.00 -1.00 -1.00
  virtual crystal weights 
   VCA    =   1.00  1.00  1.00  1.00
   NELECT =     511.0000    total number of electrons
   NUPDOWN=      -1.0000    fix difference up-down

 DOS related values:
   EMIN   =  10.00;   EMAX   =-10.00  energy-range for DOS
   EFERMI =   0.00
   ISMEAR =     0;   SIGMA  =   0.05  broadening in eV -4-tet -1-fermi 0-gaus

 Electronic relaxation 2 (details)
   IALGO  =     53    algorithm
   LDIAG  =      F    sub-space diagonalisation (order eigenvalues)
   LSUBROT=      F    optimize rotation matrix (better conditioning)
   TURBO    =      0    0=normal 1=particle mesh
   IRESTART =      0    0=no restart 2=restart with 2 vectors
   NREBOOT  =      0    no. of reboots
   NMIN     =      0    reboot dimension
   EREF     =   0.00    reference energy to select bands
   IMIX   =      4    mixing-type and parameters
     AMIX     =   0.40;   BMIX     =  1.00
     AMIX_MAG =   1.60;   BMIX_MAG =  1.00
     AMIN     =   0.10
     WC   =   100.;   INIMIX=   1;  MIXPRE=   1;  MAXMIX= -45

 Intra band minimization:
   WEIMIN = 0.0010     energy-eigenvalue tresh-hold
   EBREAK =  0.77E-09  absolut break condition
   DEPER  =   0.30     relativ break condition  

   TIME   =   0.40     timestep for ELM

  volume/ion in A,a.u.               =      40.37       272.41
  Fermi-wavevector in a.u.,A,eV,Ry     =   0.757069  1.430652  7.798221  0.573153
  Thomas-Fermi vector in A             =   1.855332
 
 Write flags
   LWAVE        =      T    write WAVECAR
   LDOWNSAMPLE  =      F    k-point downsampling of WAVECAR
   LCHARG       =      T    write CHGCAR
   LVTOT        =      F    write LOCPOT, total local potential
   LVHAR        =      F    write LOCPOT, Hartree potential only
   LELF         =      F    write electronic localiz. function (ELF)
   LORBIT       =      0    0 simple, 1 ext, 2 COOP (PROOUT), +10 PAW based schemes


 Dipole corrections
   LMONO  =      F    monopole corrections only (constant potential shift)
   LDIPOL =      F    correct potential (dipole corrections)
   IDIPOL =      0    1-x, 2-y, 3-z, 4-all directions 
   EPSILON=  1.0000000 bulk dielectric constant

 Exchange correlation treatment:
   GGA     =    PE    GGA type
   LEXCH   =     8    internal setting for exchange type
   VOSKOWN=      0    Vosko Wilk Nusair interpolation
   EXXOEP  =     0    0=HF, 1=EXX-LHF (local Hartree Fock) 2=EXX OEP
   LHFCALC =     T    Hartree Fock is set to
   LSYMGRAD=     F    symmetrize gradient (conserves proper symmetry)
   PRECFOCK=fast      Normal, Fast or Accurate (Low or Medium for compatibility)
   LRHFCALC=     F    long range Hartree Fock
   LRSCOR  =     F    long range correlation only (use DFT for short range part)
   LTHOMAS =     F    Thomas Fermi screening in HF
   LMODELHF=     F    short range full HF, long range fraction AEXX
   LFOCKACE=     T    use Adeptively-Compressed-Exchange operator
   ENCUT4O =  -1.0   cutoff for four orbital integrals eV
   LMAXFOCK=     4    L truncation for augmentation on plane wave grid
   LMAXFOCKAE=  -1    L truncation for all-electron charge restoration on plane wave grid
   NMAXFOCKAE=   1    number of basis functions for all-electron charge restoration
   LFOCKAEDFT=     F  apply the AE augmentation even for DFT
   NKREDX  =     1    reduce k-point grid by
   NKREDY  =     1    reduce k-point grid by
   NKREDZ  =     1    reduce k-point grid by
   SHIFTRED=     F    shift reduced grid of Gamma
   HFKIDENT=     F    idential grid for each k-point
   ODDONLY =     F    use only odd q-grid points
   EVENONLY=     F    use only even q-grid points
   HFALPHA =   -1.0000 decay constant for conv. correction
   MCALPHA =    0.0000 extent of test-charge in conv. correction in multipole expansion
   AEXX    =    0.3200 exact exchange contribution
   HFSCREEN=    0.2000 screening length (either q_TF or 0.3 A-1)
   HFSCREENC=   0.2000 screening length for correlation (either q_TF or 0.3 A-1)
   HFRCUT  =    0.0000 spherical cutoff for potential kernel
   ALDAX   =    0.6800 LDA exchange part
   AGGAX   =    0.6800 GGA exchange part
   ALDAC   =    1.0000 LDA correlation
   AGGAC   =    1.0000 GGA correlation
   ENCUTFOCK=  -1.0 apply spherical cutoff to Coloumb kernel
   NBANDSGWLOW=     1    first orbital included in HF term
   NBLOCK_FOCK=    64    blocking factor in FOCK_ACC
 Linear response parameters
   LEPSILON=     F    determine dielectric tensor
   LRPA    =     F    only Hartree local field effects (RPA)
   LNABLA  =     F    use nabla operator in PAW spheres
   LVEL    =     F    velocity operator in full k-point grid
   LINTERFAST=   F  fast interpolation
   KINTER  =     0    interpolate to denser k-point grid
   CSHIFT  =0.1000    complex shift for real part using Kramers Kronig
   OMEGAMAX=  -1.0    maximum frequency
   DEG_THRESHOLD= 0.2000000E-02 threshold for treating states as degnerate
   RTIME   =   -0.100 relaxation time in fs
  (WPLASMAI=    0.000 imaginary part of plasma frequency in eV, 0.658/RTIME)
   DFIELD  = 0.0000000 0.0000000 0.0000000 field for delta impulse in time
 
 Orbital magnetization related:
   ORBITALMAG=     F  switch on orbital magnetization
   LCHIMAG   =     F  perturbation theory with respect to B field
   DQ        =  0.001000  dq finite difference perturbation B field
   LLRAUG    =     F  two centre corrections for induced B field



--------------------------------------------------------------------------------------------------------


 conjugate gradient relaxation of ions
 charge density and potential will be updated during run
 spin polarized calculation
 Conjugate gradient for all bands (Kresse, et al. variant)
 perform Loewdin sub-space diagonalisation
    ordering is kept fixed
    before iterative eigenvector-optimisation
 modified Broyden-mixing scheme, WC =      100.0
 initial mixing is a Kerker type mixing with AMIX =  0.4000 and BMIX =      1.0000
 Hartree-type preconditioning will be used
 using additional bands           68
 real space projection scheme for non local part
 use partial core corrections
 no Harris-corrections to forces 
 use gradient corrections 
 use of overlap-Matrix (Vanderbilt PP)
 Gauss-broadening in eV      SIGMA  =   0.05


--------------------------------------------------------------------------------------------------------


  energy-cutoff  :      600.00
  volume of cell :     5167.01
      direct lattice vectors                 reciprocal lattice vectors
     9.971979102-17.271974457  0.000000000     0.050140498 -0.028948630  0.000000000
     9.971979102 17.271974457  0.000000000     0.050140498  0.028948630  0.000000000
     0.000000000  0.000000000 14.999822410     0.000000000  0.000000000  0.066667456

  length of vectors
    19.943958204 19.943958204 14.999822410     0.057897260  0.057897260  0.066667456


 
 k-points in units of 2pi/SCALE and weight: kpoint mesh                             
   0.00000000  0.00000000  0.00000000       1.000
 
 k-points in reciprocal lattice and weights: kpoint mesh                             
   0.00000000  0.00000000  0.00000000       1.000
 
 position of ions in fractional coordinates (direct lattice) 
   0.04166667  0.08333333  0.50000000
   0.04166667  0.20833333  0.50000000
   0.04166667  0.33333333  0.50000000
   0.04166667  0.45833333  0.50000000
   0.04166667  0.58333333  0.50000000
   0.04166667  0.70833333  0.50000000
   0.04166667  0.83333333  0.50000000
   0.04166667  0.95833333  0.50000000
   0.16666667  0.08333333  0.50000000
   0.16666667  0.20833333  0.50000000
   0.16666667  0.33333333  0.50000000
   0.16666667  0.45833333  0.50000000
   0.16666667  0.58333333  0.50000000
   0.16666667  0.70833333  0.50000000
   0.16666667  0.83333333  0.50000000
   0.16666667  0.95833333  0.50000000
   0.29166667  0.08333333  0.50000000
   0.29166667  0.20833333  0.50000000
   0.29166667  0.33333333  0.50000000
   0.29166667  0.45833333  0.50000000
   0.29166667  0.58333333  0.50000000
   0.29166667  0.70833333  0.50000000
   0.29166667  0.83333333  0.50000000
   0.29166667  0.95833333  0.50000000
   0.41666667  0.08333333  0.50000000
   0.41666667  0.20833333  0.50000000
   0.41666667  0.58333333  0.50000000
   0.41666667  0.70833333  0.50000000
   0.41666667  0.83333333  0.50000000
   0.41666667  0.95833333  0.50000000
   0.54166667  0.08333333  0.50000000
   0.54166667  0.20833333  0.50000000
   0.54166667  0.33333333  0.50000000
   0.54166667  0.58333333  0.50000000
   0.54166667  0.70833333  0.50000000
   0.54166667  0.83333333  0.50000000
   0.54166667  0.95833333  0.50000000
   0.66666667  0.08333333  0.50000000
   0.66666667  0.20833333  0.50000000
   0.66666667  0.33333333  0.50000000
   0.66666667  0.45833333  0.50000000
   0.66666667  0.58333333  0.50000000
   0.66666667  0.70833333  0.50000000
   0.66666667  0.83333333  0.50000000
   0.66666667  0.95833333  0.50000000
   0.79166667  0.08333333  0.50000000
   0.79166667  0.20833333  0.50000000
   0.79166667  0.33333333  0.50000000
   0.79166667  0.45833333  0.50000000
   0.79166667  0.58333333  0.50000000
   0.79166667  0.70833333  0.50000000
   0.79166667  0.83333333  0.50000000
   0.79166667  0.95833333  0.50000000
   0.91666667  0.08333333  0.50000000
   0.91666667  0.20833333  0.50000000
   0.91666667  0.33333333  0.50000000
   0.91666667  0.45833333  0.50000000
   0.91666667  0.58333333  0.50000000
   0.91666667  0.70833333  0.50000000
   0.91666667  0.83333333  0.50000000
   0.91666667  0.95833333  0.50000000
   0.08333333  0.04166667  0.50000000
   0.08333333  0.16666667  0.50000000
   0.08333333  0.29166667  0.50000000
   0.08333333  0.41666667  0.50000000
   0.08333333  0.54166667  0.50000000
   0.08333333  0.66666667  0.50000000
   0.08333333  0.79166667  0.50000000
   0.08333333  0.91666667  0.50000000
   0.20833333  0.04166667  0.50000000
   0.20833333  0.16666667  0.50000000
   0.20833333  0.29166667  0.50000000
   0.20833333  0.41666667  0.50000000
   0.20833333  0.54166667  0.50000000
   0.20833333  0.66666667  0.50000000
   0.20833333  0.79166667  0.50000000
   0.20833333  0.91666667  0.50000000
   0.33333333  0.04166667  0.50000000
   0.33333333  0.16666667  0.50000000
   0.33333333  0.29166667  0.50000000
   0.33333333  0.41666667  0.50000000
   0.33333333  0.54166667  0.50000000
   0.33333333  0.66666667  0.50000000
   0.33333333  0.79166667  0.50000000
   0.33333333  0.91666667  0.50000000
   0.45833333  0.04166667  0.50000000
   0.45833333  0.16666667  0.50000000
   0.45833333  0.29166667  0.50000000
   0.45833333  0.54166667  0.50000000
   0.45833333  0.66666667  0.50000000
   0.45833333  0.79166667  0.50000000
   0.45833333  0.91666667  0.50000000
   0.58333333  0.04166667  0.50000000
   0.58333333  0.16666667  0.50000000
   0.58333333  0.29166667  0.50000000
   0.58333333  0.41666667  0.50000000
   0.58333333  0.54166667  0.50000000
   0.58333333  0.66666667  0.50000000
   0.58333333  0.79166667  0.50000000
   0.58333333  0.91666667  0.50000000
   0.70833333  0.04166667  0.50000000
   0.70833333  0.16666667  0.50000000
   0.70833333  0.29166667  0.50000000
   0.70833333  0.41666667  0.50000000
   0.70833333  0.54166667  0.50000000
   0.70833333  0.66666667  0.50000000
   0.70833333  0.79166667  0.50000000
   0.70833333  0.91666667  0.50000000
   0.83333333  0.04166667  0.50000000
   0.83333333  0.16666667  0.50000000
   0.83333333  0.29166667  0.50000000
   0.83333333  0.41666667  0.50000000
   0.83333333  0.54166667  0.50000000
   0.83333333  0.66666667  0.50000000
   0.83333333  0.79166667  0.50000000
   0.83333333  0.91666667  0.50000000
   0.95833333  0.04166667  0.50000000
   0.95833333  0.16666667  0.50000000
   0.95833333  0.29166667  0.50000000
   0.95833333  0.41666667  0.50000000
   0.95833333  0.54166667  0.50000000
   0.95833333  0.66666667  0.50000000
   0.95833333  0.79166667  0.50000000
   0.95833333  0.91666667  0.50000000
   0.45833333  0.41666667  0.50000000
   0.41666667  0.33333333  0.50000000
   0.41666667  0.45833333  0.50000000
   0.54166667  0.45833333  0.50000000
 
 position of ions in cartesian coordinates  (Angst):
   1.24649739  0.71966560  7.49991120
   2.49299478  2.87866241  7.49991120
   3.73949216  5.03765922  7.49991120
   4.98598955  7.19665602  7.49991120
   6.23248694  9.35565283  7.49991120
   7.47898433 11.51464964  7.49991120
   8.72548171 13.67364644  7.49991120
   9.97197910 15.83264325  7.49991120
   2.49299478 -1.43933121  7.49991120
   3.73949216  0.71966560  7.49991120
   4.98598955  2.87866241  7.49991120
   6.23248694  5.03765922  7.49991120
   7.47898433  7.19665602  7.49991120
   8.72548171  9.35565283  7.49991120
   9.97197910 11.51464964  7.49991120
  11.21847649 13.67364644  7.49991120
   3.73949216 -3.59832801  7.49991120
   4.98598955 -1.43933121  7.49991120
   6.23248694  0.71966560  7.49991120
   7.47898433  2.87866241  7.49991120
   8.72548171  5.03765922  7.49991120
   9.97197910  7.19665602  7.49991120
  11.21847649  9.35565283  7.49991120
  12.46497388 11.51464964  7.49991120
   4.98598955 -5.75732482  7.49991120
   6.23248694 -3.59832801  7.49991120
   9.97197910  2.87866241  7.49991120
  11.21847649  5.03765922  7.49991120
  12.46497388  7.19665602  7.49991120
  13.71147127  9.35565283  7.49991120
   6.23248694 -7.91632163  7.49991120
   7.47898433 -5.75732482  7.49991120
   8.72548171 -3.59832801  7.49991120
  11.21847649  0.71966560  7.49991120
  12.46497388  2.87866241  7.49991120
  13.71147127  5.03765922  7.49991120
  14.95796865  7.19665602  7.49991120
   7.47898433-10.07531843  7.49991120
   8.72548171 -7.91632163  7.49991120
   9.97197910 -5.75732482  7.49991120
  11.21847649 -3.59832801  7.49991120
  12.46497388 -1.43933121  7.49991120
  13.71147127  0.71966560  7.49991120
  14.95796865  2.87866241  7.49991120
  16.20446604  5.03765922  7.49991120
   8.72548171-12.23431524  7.49991120
   9.97197910-10.07531843  7.49991120
  11.21847649 -7.91632163  7.49991120
  12.46497388 -5.75732482  7.49991120
  13.71147127 -3.59832801  7.49991120
  14.95796865 -1.43933121  7.49991120
  16.20446604  0.71966560  7.49991120
  17.45096343  2.87866241  7.49991120
   9.97197910-14.39331205  7.49991120
  11.21847649-12.23431524  7.49991120
  12.46497388-10.07531843  7.49991120
  13.71147127 -7.91632163  7.49991120
  14.95796865 -5.75732482  7.49991120
  16.20446604 -3.59832801  7.49991120
  17.45096343 -1.43933121  7.49991120
  18.69746082  0.71966560  7.49991120
   1.24649739 -0.71966560  7.49991120
   2.49299478  1.43933121  7.49991120
   3.73949216  3.59832801  7.49991120
   4.98598955  5.75732482  7.49991120
   6.23248694  7.91632163  7.49991120
   7.47898433 10.07531843  7.49991120
   8.72548171 12.23431524  7.49991120
   9.97197910 14.39331205  7.49991120
   2.49299478 -2.87866241  7.49991120
   3.73949216 -0.71966560  7.49991120
   4.98598955  1.43933121  7.49991120
   6.23248694  3.59832801  7.49991120
   7.47898433  5.75732482  7.49991120
   8.72548171  7.91632163  7.49991120
   9.97197910 10.07531843  7.49991120
  11.21847649 12.23431524  7.49991120
   3.73949216 -5.03765922  7.49991120
   4.98598955 -2.87866241  7.49991120
   6.23248694 -0.71966560  7.49991120
   7.47898433  1.43933121  7.49991120
   8.72548171  3.59832801  7.49991120
   9.97197910  5.75732482  7.49991120
  11.21847649  7.91632163  7.49991120
  12.46497388 10.07531843  7.49991120
   4.98598955 -7.19665602  7.49991120
   6.23248694 -5.03765922  7.49991120
   7.47898433 -2.87866241  7.49991120
   9.97197910  1.43933121  7.49991120
  11.21847649  3.59832801  7.49991120
  12.46497388  5.75732482  7.49991120
  13.71147127  7.91632163  7.49991120
   6.23248694 -9.35565283  7.49991120
   7.47898433 -7.19665602  7.49991120
   8.72548171 -5.03765922  7.49991120
   9.97197910 -2.87866241  7.49991120
  11.21847649 -0.71966560  7.49991120
  12.46497388  1.43933121  7.49991120
  13.71147127  3.59832801  7.49991120
  14.95796865  5.75732482  7.49991120
   7.47898433-11.51464964  7.49991120
   8.72548171 -9.35565283  7.49991120
   9.97197910 -7.19665602  7.49991120
  11.21847649 -5.03765922  7.49991120
  12.46497388 -2.87866241  7.49991120
  13.71147127 -0.71966560  7.49991120
  14.95796865  1.43933121  7.49991120
  16.20446604  3.59832801  7.49991120
   8.72548171-13.67364644  7.49991120
   9.97197910-11.51464964  7.49991120
  11.21847649 -9.35565283  7.49991120
  12.46497388 -7.19665602  7.49991120
  13.71147127 -5.03765922  7.49991120
  14.95796865 -2.87866241  7.49991120
  16.20446604 -0.71966560  7.49991120
  17.45096343  1.43933121  7.49991120
   9.97197910-15.83264325  7.49991120
  11.21847649-13.67364644  7.49991120
  12.46497388-11.51464964  7.49991120
  13.71147127 -9.35565283  7.49991120
  14.95796865 -7.19665602  7.49991120
  16.20446604 -5.03765922  7.49991120
  17.45096343 -2.87866241  7.49991120
  18.69746082 -0.71966560  7.49991120
   8.72548171 -0.71966560  7.49991120
   7.47898433 -1.43933121  7.49991120
   8.72548171  0.71966560  7.49991120
   9.97197910 -1.43933121  7.49991120
 


--------------------------------------------------------------------------------------------------------


 use parallel FFT for orbitals z direction half grid
 k-point   1 :   0.0000 0.0000 0.0000  plane waves:   86199

 maximum and minimum number of plane-waves per node :      1801     1780

 maximum number of plane-waves:     86199
 maximum index in each direction: 
   IXMAX=   39   IYMAX=   39   IZMAX=   29
   IXMIN=  -39   IYMIN=  -39   IZMIN=    0


 real space projection operators:
  total allocation   :      10945.88 KBytes
  max/ min on nodes  :        316.50        138.00


 parallel 3D FFT for wavefunctions:
    minimum data exchange during FFTs selected (reduces bandwidth)
 parallel 3D FFT for charge:
    minimum data exchange during FFTs selected (reduces bandwidth)


 FFT grid for exact exchange (Hartree Fock) 
  NGX = 80; NGY = 80; NGZ = 60

 use parallel FFT for orbitals z direction half grid
 
 Radii for the augmentation spheres in the non-local exchange
 for species   1 augmentation radius   1.036 (default was   0.767)
       energy cutoff for augmentation   2400.0
 for species   2 augmentation radius   0.957 (default was   0.709)
       energy cutoff for augmentation   2400.0
 for species   3 augmentation radius   0.944 (default was   0.699)
       energy cutoff for augmentation   2400.0
 for species   4 augmentation radius   1.036 (default was   0.767)
       energy cutoff for augmentation   2400.0

 real space projection operators:
  total allocation   :       2711.81 KBytes
  max/ min on nodes  :         90.00         23.34

 Maximum index for augmentation-charges in exchange           45
  SETUP_FOCK is finished

 total amount of memory used by VASP MPI-rank0    59216. kBytes
=======================================================================

   base      :      30000. kBytes
   nonlr-proj:        394. kBytes
   fftplans  :       3742. kBytes
   grid      :      10974. kBytes
   one-center:          9. kBytes
   HF        :          9. kBytes
   wavefun   :      14088. kBytes
 
     INWAV:  cpu time    0.0000: real time    0.0001
 Broyden mixing: mesh for mixing (old mesh)
   NGX = 79   NGY = 79   NGZ = 59
  (NGX  =240   NGY  =240   NGZ  =180)
  gives a total of 368219 points

 initial charge density was supplied:
 charge density of overlapping atoms calculated
 number of electron     511.0000000 magnetization       6.0000000
 keeping initial charge density in first step


--------------------------------------------------------------------------------------------------------


 Maximum index for non-local projection operator          121
 Maximum index for augmentation-charges          257 (set IRDMAX)


--------------------------------------------------------------------------------------------------------


 First call to EWALD:  gamma=   0.103
 Maximum number of real-space cells 3x 3x 3
 Maximum number of reciprocal cells 3x 3x 2

    FEWALD:  cpu time    0.0027: real time    0.0028


--------------------------------------- Iteration      1(   1)  ---------------------------------------


    POTLOK:  cpu time    0.1705: real time    0.1714
    SETDIJ:  cpu time    0.4793: real time    0.4807
    TRIAL :  cpu time    2.1447: real time    2.1519
    CORREC:  cpu time    0.0008: real time    0.0008
    --------------------------------------------
      LOOP:  cpu time    2.8018: real time    2.8120

 eigenvalue-minimisations  :  1936
 total energy-change (2. order) : 0.6377673E+04  (-0.2038516E+05)
 number of electron     511.0000000 magnetization       6.0000000
 augmentation part      511.0000000 magnetization       6.0000000

 Free energy of the ion-electron system (eV)
  ---------------------------------------------------
  alpha Z        PSCENC =       281.43651090
  Ewald energy   TEWEN  =     50845.68765483
  -Hartree energ DENC   =    -67085.02590081
  -exchange      EXHF   =         0.00000000
  -V(xc)+E(xc)   XCENC  =      1721.89452222
  PAW double counting   =     15802.21045314   -19510.19005824
  entropy T*S    EENTRO =        -0.04321018
  eigenvalues    EBANDS =      3237.21046042
  atomic energy  EATOM  =     21084.49230616
  ---------------------------------------------------
  free energy    TOTEN  =      6377.67273844 eV

  energy without entropy =     6377.71594862  energy(sigma->0) =     6377.69434353
  exchange ACFDT corr.  =         0.00000000  see jH, gK, PRB 81, 115126


--------------------------------------------------------------------------------------------------------




--------------------------------------- Iteration      1(   2)  ---------------------------------------


    TRIAL :  cpu time    2.6425: real time    2.6506
    CORREC:  cpu time    0.0007: real time    0.0008
    --------------------------------------------
      LOOP:  cpu time    2.6460: real time    2.6562

 eigenvalue-minimisations  :  2592
 total energy-change (2. order) :-0.5709192E+04  (-0.5221824E+04)
 number of electron     511.0000000 magnetization       6.0000000
 augmentation part      511.0000000 magnetization       6.0000000

 Free energy of the ion-electron system (eV)
  ---------------------------------------------------
  alpha Z        PSCENC =       281.43651090
  Ewald energy   TEWEN  =     50845.68765483
  -Hartree energ DENC   =    -67085.02590081
  -exchange      EXHF   =         0.00000000
  -V(xc)+E(xc)   XCENC  =      1721.89452222
  PAW double counting   =     15802.21045314   -19510.19005824
  entropy T*S    EENTRO =        -0.03128533
  eigenvalues    EBANDS =     -2471.99312863
  atomic energy  EATOM  =     21084.49230616
  ---------------------------------------------------
  free energy    TOTEN  =       668.48107425 eV

  energy without entropy =      668.51235958  energy(sigma->0) =      668.49671691
  exchange ACFDT corr.  =         0.00000000  see jH, gK, PRB 81, 115126


--------------------------------------------------------------------------------------------------------




--------------------------------------- Iteration      1(   3)  ---------------------------------------


    TRIAL :  cpu time    2.8827: real time    2.8944
    CORREC:  cpu time    0.0007: real time    0.0007
    --------------------------------------------
      LOOP:  cpu time    2.8837: real time    2.8954

 eigenvalue-minimisations  :  2592
 total energy-change (2. order) :-0.3206721E+04  (-0.2909288E+04)
 number of electron     511.0000000 magnetization       6.0000000
 augmentation part      511.0000000 magnetization       6.0000000

 Free energy of the ion-electron system (eV)
  ---------------------------------------------------
  alpha Z        PSCENC =       281.43651090
  Ewald energy   TEWEN  =     50845.68765483
  -Hartree energ DENC   =    -67085.02590081
  -exchange      EXHF   =         0.00000000
  -V(xc)+E(xc)   XCENC  =      1721.89452222
  PAW double counting   =     15802.21045314   -19510.19005824
  entropy T*S    EENTRO =        -0.03640060
  eigenvalues    EBANDS =     -5678.70938632
  atomic energy  EATOM  =     21084.49230616
  ---------------------------------------------------
  free energy    TOTEN  =     -2538.24029871 eV

  energy without entropy =    -2538.20389812  energy(sigma->0) =    -2538.22209841
  exchange ACFDT corr.  =         0.00000000  see jH, gK, PRB 81, 115126


--------------------------------------------------------------------------------------------------------




--------------------------------------- Iteration      1(   4)  ---------------------------------------


    TRIAL :  cpu time    2.6462: real time    2.6535
    CORREC:  cpu time    0.0006: real time    0.0006
    --------------------------------------------
      LOOP:  cpu time    2.6469: real time    2.6543

 eigenvalue-minimisations  :  2592
 total energy-change (2. order) :-0.1645788E+04  (-0.1522649E+04)
 number of electron     511.0000000 magnetization       6.0000000
 augmentation part      511.0000000 magnetization       6.0000000

 Free energy of the ion-electron system (eV)
  ---------------------------------------------------
  alpha Z        PSCENC =       281.43651090
  Ewald energy   TEWEN  =     50845.68765483
  -Hartree energ DENC   =    -67085.02590081
  -exchange      EXHF   =         0.00000000
  -V(xc)+E(xc)   XCENC  =      1721.89452222
  PAW double counting   =     15802.21045314   -19510.19005824
  entropy T*S    EENTRO =        -0.00204504
  eigenvalues    EBANDS =     -7324.53180301
  atomic energy  EATOM  =     21084.49230616
  ---------------------------------------------------
  free energy    TOTEN  =     -4184.02835985 eV

  energy without entropy =    -4184.02631481  energy(sigma->0) =    -4184.02733733
  exchange ACFDT corr.  =         0.00000000  see jH, gK, PRB 81, 115126


--------------------------------------------------------------------------------------------------------




--------------------------------------- Iteration      1(   5)  ---------------------------------------


    POTLOK:  cpu time    0.3376: real time    0.3384
    SETDIJ:  cpu time    0.4531: real time    0.4544
    TRIAL :  cpu time   31.7518: real time   31.8434
    CORREC:  cpu time    0.0005: real time    0.0005
    CHARGE:  cpu time    0.0805: real time    0.0807
    --------------------------------------------
      LOOP:  cpu time   32.6237: real time   32.7177

 eigenvalue-minimisations  :  2592
 total energy-change (2. order) : 0.3157071E+04  (-0.8404132E+03)
 number of electron     510.9999566 magnetization      -0.9999999
 augmentation part       20.9741239 magnetization      -0.0791922

 Free energy of the ion-electron system (eV)
  ---------------------------------------------------
  alpha Z        PSCENC =       281.43651090
  Ewald energy   TEWEN  =     50845.68765483
  -Hartree energ DENC   =    -67085.02590081
  -exchange      EXHF   =      1419.30745458
  -V(xc)+E(xc)   XCENC  =      1211.61611897
  PAW double counting   =     16221.35609199   -16216.06417739
  entropy T*S    EENTRO =        -0.00000000
  eigenvalues    EBANDS =     -8789.76335250
  atomic energy  EATOM  =     21084.49230616
  ---------------------------------------------------
  free energy    TOTEN  =     -1026.95729326 eV

  energy without entropy =    -1026.95729326  energy(sigma->0) =    -1026.95729326
  exchange ACFDT corr.  =        -0.00111006  see jH, gK, PRB 81, 115126


--------------------------------------------------------------------------------------------------------




--------------------------------------- Iteration      1(   6)  ---------------------------------------


    POTLOK:  cpu time    0.3435: real time    0.3443
    SETDIJ:  cpu time    0.4781: real time    0.4795
    TRIAL :  cpu time   29.0556: real time   29.1381
    CORREC:  cpu time    0.0006: real time    0.0006
    CHARGE:  cpu time    0.0791: real time    0.0793
    --------------------------------------------
      LOOP:  cpu time   29.9616: real time   30.0533

 eigenvalue-minimisations  :     0
 total energy-change (2. order) : 0.1963615E+03  (-0.6750330E+03)
 number of electron     510.9999624 magnetization      -0.9999998
 augmentation part       15.8237786 magnetization      -0.0919369

 Free energy of the ion-electron system (eV)
  ---------------------------------------------------
  alpha Z        PSCENC =       281.43651090
  Ewald energy   TEWEN  =     50845.68765483
  -Hartree energ DENC   =    -68838.96301918
  -exchange      EXHF   =      1620.40623600
  -V(xc)+E(xc)   XCENC  =      1316.50486000
  PAW double counting   =     59750.17239134   -59773.19206024
  entropy T*S    EENTRO =        -0.00000000
  eigenvalues    EBANDS =     -7117.14069567
  atomic energy  EATOM  =     21084.49230616
  ---------------------------------------------------
  free energy    TOTEN  =      -830.59581586 eV

  energy without entropy =     -830.59581586  energy(sigma->0) =     -830.59581586
  exchange ACFDT corr.  =        -0.00000000  see jH, gK, PRB 81, 115126


--------------------------------------------------------------------------------------------------------




--------------------------------------- Iteration      1(   7)  ---------------------------------------


    POTLOK:  cpu time    0.3487: real time    0.3495
    SETDIJ:  cpu time    0.4697: real time    0.4710
    TRIAL :  cpu time   29.9486: real time   30.0380
    CORREC:  cpu time    0.0021: real time    0.0021
    CHARGE:  cpu time    0.0768: real time    0.0770
    --------------------------------------------
      LOOP:  cpu time   30.8490: real time   30.9516

 eigenvalue-minimisations  :     0
 total energy-change (2. order) :-0.3907796E+03  (-0.1545417E+03)
 number of electron     510.9999654 magnetization      -0.9999998
 augmentation part       13.2271419 magnetization      -0.1021102

 Free energy of the ion-electron system (eV)
  ---------------------------------------------------
  alpha Z        PSCENC =       281.43651090
  Ewald energy   TEWEN  =     50845.68765483
  -Hartree energ DENC   =    -68990.09183374
  -exchange      EXHF   =      1568.02128044
  -V(xc)+E(xc)   XCENC  =      1270.06983469
  PAW double counting   =     68143.64151490   -68157.78735091
  entropy T*S    EENTRO =        -0.00000000
  eigenvalues    EBANDS =     -7266.84534594
  atomic energy  EATOM  =     21084.49230616
  ---------------------------------------------------
  free energy    TOTEN  =     -1221.37542867 eV

  energy without entropy =    -1221.37542867  energy(sigma->0) =    -1221.37542867
  exchange ACFDT corr.  =        -0.00000000  see jH, gK, PRB 81, 115126


--------------------------------------------------------------------------------------------------------




--------------------------------------- Iteration      1(   8)  ---------------------------------------


    POTLOK:  cpu time    0.3486: real time    0.3495
    SETDIJ:  cpu time    0.4814: real time    0.4828
    TRIAL :  cpu time   29.9799: real time   30.0679
    CORREC:  cpu time    0.0005: real time    0.0005
    CHARGE:  cpu time    0.0774: real time    0.0776
    --------------------------------------------
      LOOP:  cpu time   30.8899: real time   30.9886

 eigenvalue-minimisations  :     0
 total energy-change (2. order) :-0.5783306E+02  (-0.7423122E+02)
 number of electron     510.9999654 magnetization      -0.9999998
 augmentation part       13.4174247 magnetization      -0.1013548

 Free energy of the ion-electron system (eV)
  ---------------------------------------------------
  alpha Z        PSCENC =       281.43651090
  Ewald energy   TEWEN  =     50845.68765483
  -Hartree energ DENC   =    -68675.09274600
  -exchange      EXHF   =      1548.55062716
  -V(xc)+E(xc)   XCENC  =      1252.38139167
  PAW double counting   =     70745.02079538   -70755.25997030
  entropy T*S    EENTRO =        -0.00000000
  eigenvalues    EBANDS =     -7606.42505516
  atomic energy  EATOM  =     21084.49230616
  ---------------------------------------------------
  free energy    TOTEN  =     -1279.20848536 eV

  energy without entropy =    -1279.20848536  energy(sigma->0) =    -1279.20848536
  exchange ACFDT corr.  =        -0.00000000  see jH, gK, PRB 81, 115126


[...]
  79       0.094     0.094     0.240    -0.121     0.240
  80       0.302     0.303     0.610    -0.398     0.610
  81       0.302     0.303     0.610    -0.398     0.610
  82       0.094     0.094     0.240    -0.121     0.240
  83       0.009     0.009     0.022    -0.011     0.022
  84       0.000     0.000     0.000    -0.000     0.000
  85       0.000     0.000     0.000    -0.000     0.000
  86       0.000     0.000    -0.000    -0.000    -0.000
  87      -0.003    -0.003    -0.022     0.003    -0.022
  88       0.302     0.303     0.610    -0.398     0.610
  89       0.302     0.303     0.610    -0.398     0.610
  90      -0.003    -0.003    -0.022     0.003    -0.022
  91       0.000     0.000    -0.000    -0.000    -0.000
  92       0.000     0.000     0.001    -0.001     0.001
  93      -0.000    -0.000    -0.001     0.000    -0.001
  94       0.006     0.006     0.010    -0.008     0.010
  95       0.070     0.070     0.147    -0.092     0.146
  96       0.302     0.303     0.610    -0.398     0.610
  97       0.302     0.303     0.610    -0.398     0.610
  98       0.070     0.070     0.147    -0.092     0.146
  99       0.006     0.006     0.010    -0.008     0.010
 100      -0.000    -0.000    -0.001     0.000    -0.001
 101       0.000     0.000     0.000    -0.000     0.000
 102       0.002     0.002     0.005    -0.003     0.005
 103       0.006     0.006     0.010    -0.008     0.010
 104      -0.003    -0.003    -0.022     0.003    -0.022
 105       0.094     0.094     0.240    -0.121     0.240
 106      -0.003    -0.003    -0.022     0.003    -0.022
 107       0.006     0.006     0.010    -0.008     0.010
 108       0.002     0.002     0.005    -0.003     0.005
 109       0.000     0.000     0.000    -0.000     0.000
 110       0.000     0.000     0.000    -0.000     0.000
 111      -0.000    -0.000    -0.001     0.000    -0.001
 112       0.000     0.000    -0.000    -0.000    -0.000
 113       0.009     0.009     0.022    -0.011     0.022
 114       0.009     0.009     0.022    -0.011     0.022
 115       0.000     0.000    -0.000    -0.000    -0.000
 116      -0.000    -0.000    -0.001     0.000    -0.001
 117      -0.000    -0.000    -0.001     0.000    -0.001
 118       0.002     0.002     0.005    -0.003     0.005
 119      -0.000    -0.000    -0.001     0.000    -0.001
 120       0.000     0.000     0.001    -0.001     0.001
 121       0.000     0.000     0.000    -0.000     0.000
 122       0.003     0.003     0.009    -0.004     0.009
 123       0.000     0.000     0.000    -0.000     0.000
 124       0.000     0.000     0.001    -0.001     0.001
 125       3.244     3.266     9.387    -5.815     9.366
 126       0.001     0.001    -1.346    -0.076    -1.346
 127       0.001     0.001    -1.346    -0.076    -1.346
 128       0.001     0.001    -1.346    -0.076    -1.346
 -------------------------------------------------------------


 Dipolar hyperfine coupling parameters (MHz)
 ---------------------------------------------------------------------
  ion      A_xx      A_yy      A_zz      A_xy      A_xz      A_yz
 ---------------------------------------------------------------------
   1       0.009    -0.004    -0.005    -0.002     0.000     0.000
   2       0.005    -0.003    -0.002    -0.007     0.000    -0.000
   3       0.000     0.004    -0.005    -0.007     0.000    -0.000
   4      -0.001     0.005    -0.004    -0.004     0.000    -0.000
   5      -0.000     0.003    -0.003    -0.003    -0.000     0.000
   6       0.003     0.001    -0.003    -0.002     0.000    -0.000
   7       0.005    -0.002    -0.003     0.000    -0.000    -0.000
   8       0.007    -0.003    -0.004     0.000     0.000    -0.000
   9       0.015    -0.006    -0.010     0.002     0.000     0.000
  10       0.019    -0.017    -0.002    -0.007     0.000    -0.000
  11      -0.002     0.003    -0.002    -0.019     0.000    -0.000
  12      -0.002     0.012    -0.010    -0.008     0.000    -0.000
  13      -0.003     0.008    -0.005    -0.002     0.000     0.000
  14      -0.000     0.004    -0.003    -0.000     0.000    -0.000
  15       0.003     0.001    -0.003     0.002     0.000    -0.000
  16       0.007    -0.002    -0.005     0.004    -0.000    -0.000
  17       0.013    -0.004    -0.009     0.015     0.000    -0.000
  18       0.050    -0.019    -0.031     0.024    -0.000    -0.000
  19       0.000    -0.055     0.055    -0.048     0.000    -0.000
  20      -0.023     0.054    -0.031    -0.017     0.000    -0.000
  21      -0.013     0.022    -0.009    -0.000    -0.000    -0.000
  22      -0.003     0.008    -0.005     0.002    -0.000    -0.000
  23      -0.000     0.003    -0.003     0.003     0.000    -0.000
  24       0.003     0.001    -0.005     0.006     0.000    -0.000
  25       0.002     0.008    -0.010     0.010     0.000     0.000
  26       0.019     0.011    -0.031     0.042     0.000     0.000
  27      -0.023     0.054    -0.031     0.017     0.000     0.000
  28      -0.002     0.012    -0.010     0.008     0.000     0.000
  29      -0.001     0.005    -0.004     0.004     0.000     0.000
  30      -0.000     0.004    -0.004     0.005     0.000     0.000
  31      -0.002     0.007    -0.005     0.005    -0.000    -0.000
  32      -0.014     0.016    -0.002     0.012     0.000    -0.000
  33      -0.083     0.028     0.055     0.000     0.000     0.000
  34       0.000    -0.055     0.055     0.048    -0.000    -0.000
  35      -0.002     0.003    -0.002     0.019     0.000     0.000
  36       0.000     0.004    -0.005     0.007     0.000     0.000
  37      -0.001     0.004    -0.003     0.004     0.000     0.000
  38      -0.001     0.004    -0.003     0.002    -0.000     0.000
  39      -0.006     0.009    -0.002    -0.000    -0.000    -0.000
  40      -0.014     0.016    -0.002    -0.012     0.000     0.000
  41       0.019     0.011    -0.031    -0.042     0.000    -0.000
  42       0.050    -0.019    -0.031    -0.024     0.000     0.000
  43       0.019    -0.017    -0.002     0.007     0.000     0.000
  44       0.005    -0.003    -0.002     0.007    -0.000     0.000
  45       0.001     0.002    -0.003     0.003    -0.000     0.000
  46       0.001     0.001    -0.001    -0.000    -0.000     0.000
  47      -0.001     0.004    -0.003    -0.002     0.000     0.000
  48      -0.002     0.007    -0.005    -0.005    -0.000    -0.000
  49       0.002     0.008    -0.010    -0.010     0.000    -0.000
  50       0.013    -0.004    -0.009    -0.015     0.000     0.000
  51       0.015    -0.006    -0.010    -0.002     0.000     0.000
  52       0.009    -0.004    -0.005     0.002     0.000     0.000
  53       0.004    -0.001    -0.003     0.002    -0.000    -0.000
  54       0.004    -0.001    -0.003    -0.002    -0.000     0.000
  55       0.001     0.002    -0.003    -0.003    -0.000     0.000
  56      -0.001     0.004    -0.003    -0.004     0.000    -0.000
  57      -0.000     0.004    -0.004    -0.005     0.000    -0.000
  58       0.003     0.001    -0.005    -0.006    -0.000     0.000
  59       0.007    -0.002    -0.005    -0.004     0.000     0.000
  60       0.007    -0.003    -0.004    -0.000     0.000     0.000
  61       0.006    -0.003    -0.003     0.000    -0.000    -0.000
  62       0.010    -0.005    -0.005     0.000    -0.000     0.000
  63       0.003    -0.014     0.011    -0.006     0.000    -0.000
  64      -0.005    -0.006     0.011    -0.010    -0.000     0.000
  65      -0.001     0.006    -0.005    -0.006    -0.000    -0.000
  66      -0.001     0.005    -0.003    -0.003    -0.000     0.000
  67      -0.000     0.002    -0.001    -0.002    -0.000     0.000
  68       0.002    -0.001    -0.001    -0.000    -0.000     0.000
  69       0.006    -0.003    -0.003     0.001    -0.000    -0.000
  70       0.000    -0.016     0.016     0.005     0.000     0.000
  71       0.030    -0.012    -0.018     0.001    -0.000     0.000
  72      -0.074    -0.104     0.179    -0.026    -0.000     0.000
  73      -0.003     0.020    -0.018    -0.017    -0.000    -0.000
  74      -0.017     0.001     0.016    -0.004    -0.000     0.000
  75      -0.006     0.002     0.005     0.000    -0.000     0.000
  76      -0.000     0.002    -0.001     0.002    -0.000    -0.000
  77      -0.000    -0.004     0.005     0.004     0.000    -0.000
  78      -0.007    -0.009     0.016     0.010    -0.000    -0.000
  79      -0.098    -0.125     0.223     0.023    -0.000    -0.000
  80      -0.295    -0.491     0.786    -0.001    -0.000     0.000
  81      -0.441    -0.345     0.786    -0.085    -0.000    -0.000
  82      -0.138    -0.085     0.223    -0.000    -0.000     0.000
  83      -0.017     0.001     0.016     0.004    -0.000    -0.000
  84      -0.001     0.005    -0.003     0.003    -0.000    -0.000
  85       0.001     0.003    -0.003     0.004    -0.000    -0.000
  86      -0.001     0.006    -0.005     0.006    -0.000     0.000
  87      -0.000     0.018    -0.018     0.019    -0.000     0.000
  88      -0.443    -0.343     0.786     0.084    -0.000     0.000
  89      -0.441    -0.345     0.786     0.085    -0.000     0.000
  90      -0.003     0.020    -0.018     0.017    -0.000     0.000
  91      -0.001     0.006    -0.005     0.006    -0.000     0.000
  92      -0.001     0.004    -0.002     0.004    -0.000     0.000
  93      -0.001     0.005    -0.004     0.003    -0.000    -0.000
  94      -0.014     0.004     0.011     0.005    -0.000    -0.000
  95      -0.119    -0.059     0.179     0.000    -0.000     0.000
  96      -0.443    -0.343     0.786    -0.084    -0.000    -0.000
  97      -0.295    -0.491     0.786     0.001     0.000    -0.000
  98      -0.074    -0.104     0.179     0.026    -0.000    -0.000
  99      -0.005    -0.006     0.011     0.010    -0.000    -0.000
 100       0.001     0.003    -0.004     0.004    -0.000    -0.000
 101       0.000     0.002    -0.002     0.002    -0.000     0.000
 102      -0.006     0.003     0.003    -0.000    -0.000     0.000
 103      -0.014     0.004     0.011    -0.005    -0.000     0.000
 104      -0.000     0.018    -0.018    -0.019     0.000    -0.000
 105      -0.098    -0.125     0.223    -0.023    -0.000     0.000
 106       0.030    -0.012    -0.018    -0.001    -0.000    -0.000
 107       0.003    -0.014     0.011     0.006    -0.000    -0.000
 108       0.001    -0.004     0.003     0.004    -0.000    -0.000
 109       0.003    -0.001    -0.002     0.000    -0.000     0.000
 110       0.000     0.002    -0.002    -0.002    -0.000     0.000
 111      -0.001     0.005    -0.004    -0.003    -0.000     0.000
 112      -0.001     0.006    -0.005    -0.006    -0.000    -0.000
 113      -0.007    -0.009     0.016    -0.010    -0.000     0.000
 114       0.000    -0.016     0.016    -0.005    -0.000    -0.000
 115       0.010    -0.005    -0.005    -0.000     0.000     0.000
 116       0.006    -0.003    -0.004     0.001    -0.000    -0.000
 117       0.006    -0.003    -0.004    -0.001    -0.000    -0.000
 118       0.001    -0.004     0.003    -0.004    -0.000     0.000
 119       0.001     0.003    -0.004    -0.004    -0.000     0.000
 120      -0.001     0.004    -0.002    -0.004    -0.000    -0.000
 121       0.001     0.003    -0.003    -0.004    -0.000     0.000
 122      -0.000    -0.004     0.005    -0.004    -0.000     0.000
 123       0.006    -0.003    -0.003    -0.001    -0.000     0.000
 124       0.006    -0.004    -0.002     0.000     0.000    -0.000
 125      -5.341    -5.341    10.682     0.000    -0.000     0.000
 126       0.002    -0.223     0.221     0.195    -0.000    -0.000
 127      -0.336     0.115     0.221    -0.000     0.000     0.000
 128       0.002    -0.223     0.221    -0.195    -0.000     0.000
 ---------------------------------------------------------------------


 Total hyperfine coupling parameters after diagonalization (MHz)
 (convention: |A_zz| > |A_xx| > |A_yy|)
 ----------------------------------------------------------------------
  ion      A_xx      A_yy      A_zz     asymmetry (A_yy - A_xx)/ A_zz 
 ----------------------------------------------------------------------
   1      -0.006    -0.006     0.008       0.011
   2      -0.004    -0.000     0.011       0.353
   3      -0.006    -0.006     0.008       0.011
   4      -0.004    -0.004     0.007       0.081
   5      -0.004    -0.002     0.005       0.348
   6       0.002    -0.002    -0.004       0.879
   7      -0.004    -0.002     0.005       0.348
   8      -0.004    -0.004     0.007       0.081
   9      -0.014     0.008    -0.018      -1.207
  10      -0.016     0.000     0.022       0.745
  11      -0.016     0.000     0.022       0.745
  12      -0.014     0.008    -0.018      -1.207
  13      -0.006     0.005    -0.008      -1.506
  14       0.002    -0.002    -0.004       0.881
  15       0.002    -0.002    -0.004       0.878
  16      -0.006     0.005    -0.008      -1.507
  17      -0.029     0.001    -0.033      -0.921
  18      -0.144    -0.060    -0.148      -0.566
  19       0.042     0.015    -0.096       0.280
  20      -0.144    -0.060    -0.148      -0.566
  21      -0.029     0.001    -0.033      -0.921
  22      -0.006     0.005    -0.008      -1.506
  23      -0.004    -0.002     0.005       0.347
  24      -0.006     0.005    -0.008      -1.506
  25      -0.014     0.008    -0.018      -1.206
  26      -0.144    -0.060    -0.148      -0.566
  27      -0.144    -0.060    -0.148      -0.566
  28      -0.014     0.008    -0.018      -1.207
  29      -0.004    -0.004     0.007       0.081
  30      -0.004    -0.004     0.007       0.081
  31      -0.006    -0.006     0.008       0.011
  32      -0.016     0.000     0.022       0.745
  33       0.042     0.015    -0.096       0.280
  34       0.042     0.015    -0.096       0.280
  35      -0.016     0.000     0.022       0.745
  36      -0.006    -0.006     0.008       0.011
  37      -0.004    -0.003     0.006       0.122
  38      -0.003    -0.002     0.005       0.274
  39      -0.004    -0.000     0.011       0.353
  40      -0.016     0.000     0.022       0.745
  41      -0.144    -0.060    -0.148      -0.566
  42      -0.144    -0.060    -0.148      -0.566
  43      -0.016     0.000     0.022       0.745
  44      -0.004    -0.000     0.011       0.353
  45      -0.003    -0.002     0.005       0.274
  46       0.003     0.001     0.003      -0.810
  47      -0.003    -0.002     0.005       0.274
  48      -0.006    -0.006     0.008       0.011
  49      -0.014     0.008    -0.018      -1.207
  50      -0.029     0.001    -0.033      -0.921
  51      -0.014     0.008    -0.018      -1.207
  52      -0.006    -0.006     0.008       0.011
  53      -0.003    -0.002     0.005       0.274
  54      -0.003    -0.002     0.005       0.274
  55      -0.003    -0.002     0.005       0.274
  56      -0.004    -0.003     0.006       0.122
  57      -0.004    -0.004     0.007       0.081
  58      -0.006     0.005    -0.008      -1.507
  59      -0.006     0.005    -0.008      -1.507
  60      -0.004    -0.004     0.007       0.081
  61      -0.004    -0.003     0.006       0.122
  62      -0.005    -0.005     0.009       0.038
  63       0.015    -0.006     0.021      -1.001
  64       0.015    -0.006     0.021      -1.001
  65      -0.005    -0.005     0.009       0.036
  66      -0.003    -0.003     0.006       0.094
  67       0.001     0.000     0.004      -0.089
  68       0.001     0.000     0.004      -0.089
  69      -0.003    -0.003     0.006       0.092
  70       0.024     0.004     0.038      -0.519
  71      -0.034     0.008    -0.039      -1.050
  72       0.087     0.027     0.325      -0.183
  73      -0.033     0.008    -0.039      -1.051
  74       0.024     0.004     0.038      -0.519
  75       0.010     0.002     0.014      -0.593
  76       0.001     0.000     0.004      -0.089
  77       0.010     0.002     0.014      -0.594
  78       0.024     0.004     0.038      -0.520
  79       0.156     0.102     0.463      -0.116
  80       0.315     0.119     1.396      -0.140
  81       0.315     0.119     1.396      -0.140
  82       0.156     0.102     0.463      -0.116
  83       0.024     0.004     0.038      -0.519
  84      -0.003    -0.003     0.006       0.094
  85      -0.003    -0.003     0.006       0.093
  86      -0.005    -0.005     0.009       0.036
  87      -0.033     0.008    -0.039      -1.051
  88       0.315     0.119     1.396      -0.140
  89       0.315     0.119     1.396      -0.140
  90      -0.033     0.008    -0.039      -1.051
  91      -0.005    -0.005     0.009       0.037
  92      -0.003    -0.001     0.007       0.195
  93      -0.004    -0.003     0.006       0.161
  94       0.015    -0.006     0.021      -1.001
  95       0.087     0.027     0.325      -0.183
  96       0.315     0.119     1.396      -0.140
  97       0.315     0.119     1.396      -0.140
  98       0.087     0.027     0.325      -0.183
  99       0.015    -0.006     0.021      -1.000
 100      -0.004    -0.003     0.006       0.160
 101      -0.002    -0.001     0.003       0.394
 102       0.008    -0.001     0.008      -1.078
 103       0.015    -0.006     0.021      -1.001
 104      -0.034     0.008    -0.039      -1.050
 105       0.156     0.102     0.463      -0.116
 106      -0.034     0.008    -0.039      -1.050
 107       0.015    -0.006     0.021      -1.000
 108       0.008    -0.001     0.008      -1.076
 109      -0.002    -0.001     0.003       0.395
 110      -0.002    -0.001     0.003       0.393
 111      -0.004    -0.003     0.006       0.160
 112      -0.005    -0.005     0.009       0.037
 113       0.024     0.004     0.038      -0.520
 114       0.024     0.004     0.038      -0.519
 115      -0.005    -0.005     0.009       0.036
 116      -0.004    -0.003     0.006       0.160
 117      -0.004    -0.003     0.006       0.160
 118       0.008    -0.001     0.008      -1.075
 119      -0.004    -0.003     0.006       0.161
 120      -0.003    -0.001     0.007       0.196
 121      -0.003    -0.003     0.006       0.092
 122       0.010     0.002     0.014      -0.594
 123      -0.003    -0.003     0.006       0.093
 124      -0.003    -0.001     0.007       0.195
 125       4.025     4.025    20.048      -0.000
 126      -1.231    -1.125    -1.682      -0.063
 127      -1.231    -1.125    -1.682      -0.063
 128      -1.231    -1.125    -1.682      -0.063
 ---------------------------------------------------------------------



--------------------------------------------------------------------------------------------------------




--------------------------------------------------------------------------------------------------------


  
 reached required accuracy - stopping structural energy minimisation
 writing wavefunctions
     LOOP+:  cpu time  162.0268: real time  163.8235
    4ORBIT:  cpu time    0.0000: real time    0.0000

 total amount of memory used by VASP MPI-rank0    82588. kBytes
=======================================================================

   base      :      30000. kBytes
   nonlr-proj:        394. kBytes
   fftplans  :       3742. kBytes
   grid      :      10974. kBytes
   one-center:          9. kBytes
   HF        :          9. kBytes
   wavefun   :      14088. kBytes
   fock_wrk  :      23372. kBytes
 
  
  
 General timing and accounting informations for this job:
 ========================================================
  
                  Total CPU time used (sec):    14995.706
                            User time (sec):    14966.048
                          System time (sec):       29.658
                         Elapsed time (sec):    15069.367
  
                   Maximum memory used (kb):      381236.
                   Average memory used (kb):          N/A
  
                          Minor page faults:      3000467
                          Major page faults:            0
                 Voluntary context switches:       108515
