 vasp.6.2.0 18Jan21 (build May 04 2021 12:37:48) gamma-only                     
  
 executed on             LinuxIFC date 2022.04.15  01:05:25
 running on   96 total cores
 distrk:  each k-point on   96 cores,    1 groups
 distr:  one band on NCORE=  12 cores,    8 groups


--------------------------------------------------------------------------------------------------------


 INCAR:
   SYSTEM = hBN
   PREC = Normal
   ISTART = 0
   ICHARG = 2
   ISPIN = 2
   NELECT = 430
   MAGMOM = 53*0 51*0 3*1.5
   NCORE = 12
   ENCUT = 600
   NELM = 1000
   NELMIN = 4
   EDIFF = 1E-06
   LREAL = Auto
   ALGO = Normal
   EDIFFG = -1E-02
   NSW = 500
   IBRION = 2
   ISIF = 2
   ISYM = 2
   POTIM = 0.5
   ISMEAR = 0
   SIGMA = 0.03
   LWAVE = .TRUE.
   LCHARG = .TRUE.
   LVHAR = F
   LELF = F
   LDMATRIX = .TRUE.
   LHYPERFINE = .TRUE.
   LEFG = .TRUE.

 POTCAR:    PAW_PBE B 06Sep2000                   
 POTCAR:    PAW_PBE N 08Apr2002                   
 POTCAR:    PAW_PBE N 08Apr2002                   
 -----------------------------------------------------------------------------
|                                                                             |
|           W    W    AA    RRRRR   N    N  II  N    N   GGGG   !!!           |
|           W    W   A  A   R    R  NN   N  II  NN   N  G    G  !!!           |
|           W    W  A    A  R    R  N N  N  II  N N  N  G       !!!           |
|           W WW W  AAAAAA  RRRRR   N  N N  II  N  N N  G  GGG   !            |
|           WW  WW  A    A  R   R   N   NN  II  N   NN  G    G                |
|           W    W  A    A  R    R  N    N  II  N    N   GGGG   !!!           |
|                                                                             |
|     You have selected ISYM=2 for a HF type calculation. This will           |
|     symmetrize the charge density but not the exchange potential. I         |
|     suggest to use ISYM=3 instead. This uses symmetry to obtain the         |
|     orbitals at all k-points in the Brillouin zone, but does not apply      |
|     symmetry to the Hartree potential directly. The resultant charge        |
|     might have lower symmetry than the crystal but, at least, Hartree       |
|     and exchange are fully compatible.                                      |
|                                                                             |
 -----------------------------------------------------------------------------

 POTCAR:    PAW_PBE B 06Sep2000                   
   VRHFIN =B: s2p1                                                                                  
   LEXCH  = PE                                                                                      
   EATOM  =    71.1703 eV,    5.2309 Ry                                                             
                                                                                                    
   TITEL  = PAW_PBE B 06Sep2000                                                                     
   LULTRA =        F    use ultrasoft PP ?                                                          
   IUNSCR =        1    unscreen: 0-lin 1-nonlin 2-no                                               
   RPACOR =    1.200    partial core radius                                                         
   POMASS =   10.811; ZVAL   =    3.000    mass and valenz                                          
   RCORE  =    1.700    outmost cutoff radius                                                       
   RWIGS  =    1.710; RWIGS  =    0.905    wigner-seitz radius (au A)                               
   ENMAX  =  318.614; ENMIN  =  238.960 eV                                                          
   ICORE  =        2    local potential                                                             
   LCOR   =        T    correct aug charges                                                         
   LPAW   =        T    paw PP                                                                      
   EAUG   =  535.514                                                                                
   DEXC   =    0.000                                                                                
   RMAX   =    1.732    core radius for proj-oper                                                   
   RAUG   =    1.300    factor for augmentation sphere                                              
   RDEP   =    1.757    radius for radial grids                                                     
   RDEPT  =    1.436    core radius for aug-charge                                                  
                                                                                                    
   Atomic configuration                                                                             
    4 entries                                                                                       
     n  l   j            E        occ.                                                              
     1  0  0.50      -180.5896   2.0000                                                             
     2  0  0.50        -9.4431   2.0000                                                             
     2  1  0.50        -3.6068   1.0000                                                             
     3  2  1.50        -4.0817   0.0000                                                             
   Description                                                                                      
     l       E           TYP  RCUT    TYP  RCUT                                                     
     0     -9.4430752     23  1.500                                                                 
     0      0.8675899     23  1.500                                                                 
     1     -3.6067955     23  1.700                                                                 
     1      6.1086146     23  1.700                                                                 
     2     -4.0817478      7  1.700                                                                 
  local pseudopotential read in
  partial core-charges read in
  partial kinetic energy density read in
  atomic valenz-charges read in
  non local Contribution for L=           0  read in
    real space projection operators read in
  non local Contribution for L=           0  read in
    real space projection operators read in
  non local Contribution for L=           1  read in
    real space projection operators read in
  non local Contribution for L=           1  read in
    real space projection operators read in
    PAW grid and wavefunctions read in
 
   number of l-projection  operators is LMAX  =           4
   number of lm-projection operators is LMMAX =           8
 
 POTCAR:    PAW_PBE N 08Apr2002                   
   VRHFIN =N: s2p3                                                                                  
   LEXCH  = PE                                                                                      
   EATOM  =   264.5486 eV,   19.4438 Ry                                                             
                                                                                                    
   TITEL  = PAW_PBE N 08Apr2002                                                                     
   LULTRA =        F    use ultrasoft PP ?                                                          
   IUNSCR =        1    unscreen: 0-lin 1-nonlin 2-no                                               
   RPACOR =    1.200    partial core radius                                                         
   POMASS =   14.001; ZVAL   =    5.000    mass and valenz                                          
   RCORE  =    1.500    outmost cutoff radius                                                       
   RWIGS  =    1.400; RWIGS  =    0.741    wigner-seitz radius (au A)                               
   ENMAX  =  400.000; ENMIN  =  300.000 eV                                                          
   ICORE  =        2    local potential                                                             
   LCOR   =        T    correct aug charges                                                         
   LPAW   =        T    paw PP                                                                      
   EAUG   =  627.112                                                                                
   DEXC   =    0.000                                                                                
   RMAX   =    1.529    core radius for proj-oper                                                   
   RAUG   =    1.300    factor for augmentation sphere                                              
   RDEP   =    1.514    radius for radial grids                                                     
   RDEPT  =    1.338    core radius for aug-charge                                                  
                                                                                                    
   Atomic configuration                                                                             
    4 entries                                                                                       
     n  l   j            E        occ.                                                              
     1  0  0.50      -384.7179   2.0000                                                             
     2  0  0.50       -18.5828   2.0000                                                             
     2  1  0.50        -7.0898   3.0000                                                             
     3  2  1.50        -6.8029   0.0000                                                             
   Description                                                                                      
     l       E           TYP  RCUT    TYP  RCUT                                                     
     0    -18.5828119     23  1.200                                                                 
     0    -13.5018863     23  1.200                                                                 
     1     -7.0897853     23  1.500                                                                 
     1      9.5240782     23  1.500                                                                 
     2     -6.8029130      7  1.500                                                                 
  local pseudopotential read in
  partial core-charges read in
  partial kinetic energy density read in
  atomic valenz-charges read in
  non local Contribution for L=           0  read in
    real space projection operators read in
  non local Contribution for L=           0  read in
    real space projection operators read in
  non local Contribution for L=           1  read in
    real space projection operators read in
  non local Contribution for L=           1  read in
    real space projection operators read in
    PAW grid and wavefunctions read in
 
   number of l-projection  operators is LMAX  =           4
   number of lm-projection operators is LMMAX =           8
 
 POTCAR:    PAW_PBE N 08Apr2002                   
   VRHFIN =N: s2p3                                                                                  
   LEXCH  = PE                                                                                      
   EATOM  =   264.5486 eV,   19.4438 Ry                                                             
                                                                                                    
   TITEL  = PAW_PBE N 08Apr2002                                                                     
   LULTRA =        F    use ultrasoft PP ?                                                          
   IUNSCR =        1    unscreen: 0-lin 1-nonlin 2-no                                               
   RPACOR =    1.200    partial core radius                                                         
   POMASS =   14.001; ZVAL   =    5.000    mass and valenz                                          
   RCORE  =    1.500    outmost cutoff radius                                                       
   RWIGS  =    1.400; RWIGS  =    0.741    wigner-seitz radius (au A)                               
   ENMAX  =  400.000; ENMIN  =  300.000 eV                                                          
   ICORE  =        2    local potential                                                             
   LCOR   =        T    correct aug charges                                                         
   LPAW   =        T    paw PP                                                                      
   EAUG   =  627.112                                                                                
   DEXC   =    0.000                                                                                
   RMAX   =    1.529    core radius for proj-oper                                                   
   RAUG   =    1.300    factor for augmentation sphere                                              
   RDEP   =    1.514    radius for radial grids                                                     
   RDEPT  =    1.338    core radius for aug-charge                                                  
                                                                                                    
   Atomic configuration                                                                             
    4 entries                                                                                       
     n  l   j            E        occ.                                                              
     1  0  0.50      -384.7179   2.0000                                                             
     2  0  0.50       -18.5828   2.0000                                                             
     2  1  0.50        -7.0898   3.0000                                                             
     3  2  1.50        -6.8029   0.0000                                                             
   Description                                                                                      
     l       E           TYP  RCUT    TYP  RCUT                                                     
     0    -18.5828119     23  1.200                                                                 
     0    -13.5018863     23  1.200                                                                 
     1     -7.0897853     23  1.500                                                                 
     1      9.5240782     23  1.500                                                                 
     2     -6.8029130      7  1.500                                                                 
  local pseudopotential read in
  partial core-charges read in
  partial kinetic energy density read in
  atomic valenz-charges read in
  non local Contribution for L=           0  read in
    real space projection operators read in
  non local Contribution for L=           0  read in
    real space projection operators read in
  non local Contribution for L=           1  read in
    real space projection operators read in
  non local Contribution for L=           1  read in
    real space projection operators read in
    PAW grid and wavefunctions read in
 
   number of l-projection  operators is LMAX  =           4
   number of lm-projection operators is LMMAX =           8
 
 Optimization of the real space projectors (new method)

 maximal supplied QI-value         = 22.11
 optimisation between [QCUT,QGAM] = [ 12.38, 24.98] = [ 42.93,174.79] Ry 
 Optimized for a Real-space Cutoff    1.00 Angstroem

   l    n(q)    QCUT    max X(q) W(low)/X(q) W(high)/X(q)  e(spline) 
   0      7    12.381    53.033    0.39E-03    0.69E-03    0.10E-06
   0      7    12.381    34.740    0.39E-03    0.68E-03    0.10E-06
   1      7    12.381    30.949    0.24E-03    0.68E-03    0.68E-07
   1      7    12.381    19.518    0.22E-03    0.63E-03    0.65E-07
 Optimization of the real space projectors (new method)

 maximal supplied QI-value         = 25.13
 optimisation between [QCUT,QGAM] = [ 12.32, 24.88] = [ 42.47,173.37] Ry 
 Optimized for a Real-space Cutoff    1.20 Angstroem

   l    n(q)    QCUT    max X(q) W(low)/X(q) W(high)/X(q)  e(spline) 
   0      9    12.315    79.467    0.14E-03    0.22E-04    0.37E-06
   0      9    12.315    66.151    0.14E-03    0.23E-04    0.36E-06
   1      8    12.315    22.077    0.30E-03    0.54E-03    0.45E-06
   1      8    12.315    15.894    0.30E-03    0.55E-03    0.45E-06
 Optimization of the real space projectors (new method)

 maximal supplied QI-value         = 25.13
 optimisation between [QCUT,QGAM] = [ 12.32, 24.88] = [ 42.47,173.37] Ry 
 Optimized for a Real-space Cutoff    1.20 Angstroem

   l    n(q)    QCUT    max X(q) W(low)/X(q) W(high)/X(q)  e(spline) 
   0      9    12.315    79.467    0.14E-03    0.22E-04    0.37E-06
   0      9    12.315    66.151    0.14E-03    0.23E-04    0.36E-06
   1      8    12.315    22.077    0.30E-03    0.54E-03    0.45E-06
   1      8    12.315    15.894    0.30E-03    0.55E-03    0.45E-06
  PAW_PBE B 06Sep2000                   :
 energy of atom  1       EATOM=  -71.1703
 kinetic energy error for atom=    0.0007 (will be added to EATOM!!)
  PAW_PBE N 08Apr2002                   :
 energy of atom  2       EATOM= -264.5486
 kinetic energy error for atom=    0.0103 (will be added to EATOM!!)
  PAW_PBE N 08Apr2002                   :
 energy of atom  3       EATOM= -264.5486
 kinetic energy error for atom=    0.0103 (will be added to EATOM!!)
 
 
 POSCAR: POSCAR
  positions in direct lattice
  velocities in cartesian coordinates
 exchange correlation table for  LEXCH =        8
   RHO(1)=    0.500       N(1)  =     2000
   RHO(2)=  100.500       N(2)  =     4000
 


--------------------------------------------------------------------------------------------------------


 ion  position               nearest neighbor table
   1  0.056  0.166  0.500-  83 1.45  54 1.45  80 1.45
   2  0.056  0.500  0.500-  84 1.45  55 1.45  81 1.45
   3  0.056  0.833  0.500-  85 1.45  82 1.45  56 1.45
   4  0.167  0.167  0.500-  86 1.45  57 1.45  83 1.45
   5  0.167  0.500  0.500-  87 1.44  58 1.45  84 1.45
   6  0.167  0.833  0.500-  88 1.44  59 1.45  85 1.45
   7  0.278  0.167  0.500-  89 1.45  60 1.45  86 1.46
   8  0.278  0.500  0.500-  90 1.44  61 1.45  87 1.46
   9  0.278  0.833  0.500-  91 1.44  62 1.45  88 1.46
  10  0.389  0.167  0.500-  63 1.44  92 1.45  89 1.46
  11  0.390  0.501  0.500- 106 1.40  64 1.45  90 1.48
  12  0.389  0.834  0.500-  93 1.44  65 1.45  91 1.46
  13  0.500  0.168  0.500-  66 1.43  92 1.46  94 1.46
  14  0.500  0.834  0.500-  93 1.45  95 1.45  67 1.46
  15  0.611  0.167  0.500-  68 1.44  94 1.45  96 1.46
  16  0.610  0.501  0.500- 105 1.40  69 1.45  97 1.48
  17  0.611  0.834  0.500-  95 1.44  70 1.45  98 1.46
  18  0.722  0.167  0.500-  96 1.45  71 1.45  99 1.46
  19  0.722  0.500  0.500-  97 1.44  72 1.45 100 1.46
  20  0.722  0.833  0.500-  98 1.44  73 1.45 101 1.46
  21  0.833  0.167  0.500-  99 1.45  74 1.45 102 1.45
  22  0.833  0.500  0.500- 100 1.44  75 1.45 103 1.45
  23  0.833  0.833  0.500- 101 1.44  76 1.45 104 1.45
  24  0.944  0.166  0.500- 102 1.45  77 1.45  80 1.45
  25  0.944  0.500  0.500- 103 1.45  78 1.45  81 1.45
  26  0.944  0.833  0.500- 104 1.45  82 1.45  79 1.45
  27  0.000  1.000  0.500-  56 1.45  79 1.45  80 1.45
  28  0.000  0.333  0.500-  54 1.45  77 1.45  81 1.45
  29  0.000  0.666  0.500-  55 1.45  78 1.45  82 1.45
  30  0.111  1.000  0.500-  59 1.45  83 1.45  56 1.45
  31  0.111  0.333  0.500-  57 1.45  84 1.45  54 1.45
  32  0.111  0.666  0.500-  58 1.45  85 1.45  55 1.45
  33  0.222  1.000  0.500-  62 1.44  86 1.45  59 1.45
  34  0.222  0.333  0.500-  60 1.44  87 1.45  57 1.46
  35  0.222  0.667  0.500-  61 1.44  88 1.45  58 1.46
  36  0.333  0.000  0.500-  65 1.45  89 1.45  62 1.46
  37  0.333  0.334  0.500-  63 1.44  90 1.45  60 1.46
  38  0.333  0.667  0.500-  64 1.43  91 1.46  61 1.46
  39  0.444  0.001  0.500-  92 1.45  67 1.45  65 1.45
  40  0.445  0.335  0.500- 106 1.40  66 1.45  63 1.48
  41  0.445  0.665  0.500- 107 1.40  64 1.46  93 1.48
  42  0.556  0.001  0.500-  94 1.45  67 1.45  70 1.45
  43  0.555  0.335  0.500- 105 1.40  66 1.45  68 1.48
  44  0.555  0.665  0.500- 107 1.40  69 1.46  95 1.48
  45  0.667  0.000  0.500-  70 1.45  96 1.45  73 1.46
  46  0.667  0.334  0.500-  68 1.44  97 1.45  71 1.46
  47  0.667  0.667  0.500-  69 1.43  98 1.46  72 1.46
  48  0.778  1.000  0.500-  73 1.44  99 1.45  76 1.45
  49  0.778  0.333  0.500-  71 1.44 100 1.45  74 1.46
  50  0.778  0.667  0.500-  72 1.44 101 1.45  75 1.46
  51  0.889  1.000  0.500-  76 1.45 102 1.45  79 1.45
  52  0.889  0.333  0.500-  74 1.45 103 1.45  77 1.45
  53  0.889  0.666  0.500-  75 1.45 104 1.45  78 1.45
  54  0.055  0.278  0.500-  28 1.45   1 1.45  31 1.45
  55  0.056  0.611  0.500-  29 1.45   2 1.45  32 1.45
  56  0.056  0.944  0.500-  27 1.45   3 1.45  30 1.45
  57  0.166  0.278  0.500-  31 1.45   4 1.45  34 1.46
  58  0.166  0.611  0.500-  32 1.45   5 1.45  35 1.46
  59  0.167  0.944  0.500-  30 1.45   6 1.45  33 1.45
  60  0.277  0.278  0.500-  34 1.44   7 1.45  37 1.46
  61  0.277  0.611  0.500-  35 1.44   8 1.45  38 1.46
  62  0.278  0.945  0.500-  33 1.44   9 1.45  36 1.46
  63  0.389  0.278  0.500-  10 1.44  37 1.44  40 1.48
  64  0.388  0.612  0.500-  38 1.43  11 1.45  41 1.46
  65  0.389  0.945  0.500-  36 1.45  12 1.45  39 1.45
  66  0.500  0.277  0.500-  13 1.43  40 1.45  43 1.45
  67  0.500  0.945  0.500-  39 1.45  42 1.45  14 1.46
  68  0.611  0.278  0.500-  15 1.44  46 1.44  43 1.48
  69  0.612  0.612  0.500-  47 1.43  16 1.45  44 1.46
  70  0.611  0.945  0.500-  45 1.45  17 1.45  42 1.45
  71  0.723  0.278  0.500-  49 1.44  18 1.45  46 1.46
  72  0.723  0.611  0.500-  50 1.44  19 1.45  47 1.46
  73  0.722  0.945  0.500-  48 1.44  20 1.45  45 1.46
  74  0.834  0.278  0.500-  52 1.45  21 1.45  49 1.46
  75  0.834  0.611  0.500-  53 1.45  22 1.45  50 1.46
  76  0.833  0.944  0.500-  51 1.45  23 1.45  48 1.45
  77  0.945  0.278  0.500-  28 1.45  24 1.45  52 1.45
  78  0.944  0.611  0.500-  29 1.45  25 1.45  53 1.45
  79  0.944  0.944  0.500-  27 1.45  26 1.45  51 1.45
  80  0.000  0.111  0.500-  27 1.45  24 1.45   1 1.45
  81  0.000  0.444  0.500-  28 1.45  25 1.45   2 1.45
  82  0.000  0.777  0.500-   3 1.45  26 1.45  29 1.45
  83  0.111  0.111  0.500-   1 1.45  30 1.45   4 1.45
  84  0.111  0.444  0.500-   2 1.45  31 1.45   5 1.45
  85  0.111  0.778  0.500-   3 1.45  32 1.45   6 1.45
  86  0.222  0.111  0.500-   4 1.45  33 1.45   7 1.46
  87  0.222  0.444  0.500-   5 1.44  34 1.45   8 1.46
  88  0.222  0.778  0.500-   6 1.44  35 1.45   9 1.46
  89  0.333  0.111  0.500-   7 1.45  36 1.45  10 1.46
  90  0.333  0.445  0.500-   8 1.44  37 1.45  11 1.48
  91  0.333  0.778  0.500-   9 1.44  38 1.46  12 1.46
  92  0.444  0.111  0.500-  39 1.45  10 1.45  13 1.46
  93  0.444  0.779  0.500-  12 1.44  14 1.45  41 1.48
  94  0.556  0.111  0.500-  42 1.45  15 1.45  13 1.46
  95  0.556  0.779  0.500-  17 1.44  14 1.45  44 1.48
  96  0.667  0.111  0.500-  18 1.45  45 1.45  15 1.46
  97  0.667  0.445  0.500-  19 1.44  46 1.45  16 1.48
  98  0.667  0.778  0.500-  20 1.44  47 1.46  17 1.46
  99  0.778  0.111  0.500-  21 1.45  48 1.45  18 1.46
 100  0.778  0.444  0.500-  22 1.44  49 1.45  19 1.46
 101  0.778  0.778  0.500-  23 1.44  50 1.45  20 1.46
 102  0.889  0.111  0.500-  24 1.45  51 1.45  21 1.45
 103  0.889  0.444  0.500-  25 1.45  52 1.45  22 1.45
 104  0.889  0.778  0.500-  26 1.45  53 1.45  23 1.45
 105  0.559  0.442  0.500-  16 1.40  43 1.40
 106  0.441  0.442  0.500-  11 1.40  40 1.40
 107  0.500  0.617  0.500-  41 1.40  44 1.40
 
  LATTYP: Found a simple orthorhombic cell.
 ALAT       =    13.0434866000
 B/A-ratio  =     1.1499992648
 C/A-ratio  =     1.7349469198
  
  Lattice vectors:
  
 A1 = (   0.0000000000,  13.0434866000,   0.0000000000)
 A2 = (   0.0000000000,   0.0000000000,  15.0000000000)
 A3 = (  22.6297569000,   0.0000000000,   0.0000000000)


Analysis of symmetry for initial positions (statically):
=====================================================================
 Subroutine PRICEL returns:
 Original cell was already a primitive cell.
 

 Routine SETGRP: Setting up the symmetry group for a 
 simple orthorhombic supercell.


 Subroutine GETGRP returns: Found  4 space group operations
 (whereof  4 operations were pure point group operations)
 out of a pool of  8 trial point group operations.


The static configuration has the point symmetry C_2v.


Analysis of symmetry for dynamics (positions and initial velocities):
=====================================================================
 Subroutine PRICEL returns:
 Original cell was already a primitive cell.
 

 Routine SETGRP: Setting up the symmetry group for a 
 simple orthorhombic supercell.


 Subroutine GETGRP returns: Found  4 space group operations
 (whereof  4 operations were pure point group operations)
 out of a pool of  8 trial point group operations.


The dynamic configuration has the point symmetry C_2v.


Analysis of structural, dynamic, and magnetic symmetry:
=====================================================================
 Subroutine PRICEL returns:
 Original cell was already a primitive cell.
 

 Routine SETGRP: Setting up the symmetry group for a 
 simple orthorhombic supercell.


 Subroutine GETGRP returns: Found  4 space group operations
 (whereof  4 operations were pure point group operations)
 out of a pool of  8 trial point group operations.


The overall configuration has the point symmetry C_2v.


 Subroutine INISYM returns: Found  4 space group operations
 (whereof  4 operations are pure point group operations),
 and found     1 'primitive' translations


----------------------------------------------------------------------------------------

                                     Primitive cell                                     

  volume of cell :    4427.5640

  direct lattice vectors                    reciprocal lattice vectors
    22.629756900  0.000000000  0.000000000     0.044189604  0.000000000  0.000000000
     0.000000000 13.043486600  0.000000000     0.000000000  0.076666618  0.000000000
     0.000000000  0.000000000 15.000000000     0.000000000  0.000000000  0.066666667

  length of vectors
    22.629756900 13.043486600 15.000000000     0.044189604  0.076666618  0.066666667

  position of ions in fractional coordinates (direct lattice)
     0.055557527  0.166406079  0.500000000
     0.055588883  0.499691143  0.500000000
     0.055566375  0.832969481  0.500000000
     0.166710394  0.166573381  0.500000000
     0.166694801  0.499798049  0.500000000
     0.166758212  0.833116745  0.500000000
     0.277773467  0.166846279  0.500000000
     0.277865347  0.499974068  0.500000000
     0.277914905  0.833439655  0.500000000
     0.388908521  0.167241243  0.500000000
     0.389599963  0.500739752  0.500000000
     0.389038486  0.833563630  0.500000000
     0.500000000  0.167610380  0.500000000
     0.500000000  0.833563794  0.500000000
     0.611091479  0.167241243  0.500000000
     0.610400037  0.500739752  0.500000000
     0.610961514  0.833563630  0.500000000
     0.722226533  0.166846279  0.500000000
     0.722134653  0.499974068  0.500000000
     0.722085095  0.833439655  0.500000000
     0.833289606  0.166573381  0.500000000
     0.833305199  0.499798049  0.500000000
     0.833241788  0.833116745  0.500000000
     0.944442473  0.166406079  0.500000000
     0.944411117  0.499691143  0.500000000
     0.944433625  0.832969481  0.500000000
     0.000000000  0.999669506  0.500000000
     0.000000000  0.333099212  0.500000000
     0.000000000  0.666250118  0.500000000
     0.111129637  0.999776684  0.500000000
     0.111135287  0.333094265  0.500000000
     0.111150599  0.666414900  0.500000000
     0.222257481  0.999964256  0.500000000
     0.222284741  0.333298144  0.500000000
     0.222350644  0.666544815  0.500000000
     0.333386370  0.000314593  0.500000000
     0.333456841  0.333674850  0.500000000
     0.333470976  0.666800348  0.500000000
     0.444489450  0.000581867  0.500000000
     0.445009419  0.334998852  0.500000000
     0.444743474  0.665475471  0.500000000
     0.555510550  0.000581867  0.500000000
     0.554990581  0.334998852  0.500000000
     0.555256526  0.665475471  0.500000000
     0.666613630  0.000314593  0.500000000
     0.666543159  0.333674850  0.500000000
     0.666529024  0.666800348  0.500000000
     0.777742519  0.999964256  0.500000000
     0.777715259  0.333298144  0.500000000
     0.777649356  0.666544815  0.500000000
     0.888870363  0.999776684  0.500000000
     0.888864713  0.333094265  0.500000000
     0.888849401  0.666414900  0.500000000
     0.055489998  0.277586006  0.500000000
     0.055512213  0.610885185  0.500000000
     0.055504641  0.944216435  0.500000000
     0.166487482  0.277678133  0.500000000
     0.166494089  0.611059120  0.500000000
     0.166529561  0.944377827  0.500000000
     0.277460029  0.277780895  0.500000000
     0.277433957  0.611345696  0.500000000
     0.277593514  0.944723377  0.500000000
     0.388500683  0.277685884  0.500000000
     0.388225234  0.612098084  0.500000000
     0.388746244  0.945046676  0.500000000
     0.500000000  0.277421384  0.500000000
     0.500000000  0.945175386  0.500000000
     0.611499317  0.277685884  0.500000000
     0.611774766  0.612098084  0.500000000
     0.611253756  0.945046676  0.500000000
     0.722539971  0.277780895  0.500000000
     0.722566043  0.611345696  0.500000000
     0.722406486  0.944723377  0.500000000
     0.833512518  0.277678133  0.500000000
     0.833505911  0.611059120  0.500000000
     0.833470439  0.944377827  0.500000000
     0.944510002  0.277586006  0.500000000
     0.944487787  0.610885185  0.500000000
     0.944495359  0.944216435  0.500000000
     0.000000000  0.110879587  0.500000000
     0.000000000  0.444255561  0.500000000
     0.000000000  0.777488095  0.500000000
     0.111010015  0.110966643  0.500000000
     0.110980885  0.444261762  0.500000000
     0.111023679  0.777636042  0.500000000
     0.222013670  0.111104013  0.500000000
     0.221911619  0.444408900  0.500000000
     0.222068368  0.777904916  0.500000000
     0.333082668  0.111339360  0.500000000
     0.332718227  0.444569286  0.500000000
     0.333085452  0.778403993  0.500000000
     0.444329378  0.111440676  0.500000000
     0.444285424  0.778850842  0.500000000
     0.555670622  0.111440676  0.500000000
     0.555714576  0.778850842  0.500000000
     0.666917332  0.111339360  0.500000000
     0.667281773  0.444569286  0.500000000
     0.666914548  0.778403993  0.500000000
     0.777986330  0.111104013  0.500000000
     0.778088381  0.444408900  0.500000000
     0.777931632  0.777904916  0.500000000
     0.888989985  0.110966643  0.500000000
     0.889019115  0.444261762  0.500000000
     0.888976321  0.777636042  0.500000000
     0.558691812  0.442087921  0.500000000
     0.441308188  0.442087921  0.500000000
     0.500000000  0.617217134  0.500000000

  ion indices of the primitive-cell ions
   primitive index   ion index
                 1           1
                 2           2
                 3           3
                 4           4
                 5           5
                 6           6
                 7           7
                 8           8
                 9           9
                10          10
                11          11
                12          12
                13          13
                14          14
                15          15
                16          16
                17          17
                18          18
                19          19
                20          20
                21          21
                22          22
                23          23
                24          24
                25          25
                26          26
                27          27
                28          28
                29          29
                30          30
                31          31
                32          32
                33          33
                34          34
                35          35
                36          36
                37          37
                38          38
                39          39
                40          40
                41          41
                42          42
                43          43
                44          44
                45          45
                46          46
                47          47
                48          48
                49          49
                50          50
                51          51
                52          52
                53          53
                54          54
                55          55
                56          56
                57          57
                58          58
                59          59
                60          60
                61          61
                62          62
                63          63
                64          64
                65          65
                66          66
                67          67
                68          68
                69          69
                70          70
                71          71
                72          72
                73          73
                74          74
                75          75
                76          76
                77          77
                78          78
                79          79
                80          80
                81          81
                82          82
                83          83
                84          84
                85          85
                86          86
                87          87
                88          88
                89          89
                90          90
                91          91
                92          92
                93          93
                94          94
                95          95
                96          96
                97          97
                98          98
                99          99
               100         100
               101         101
               102         102
               103         103
               104         104
               105         105
               106         106
               107         107

----------------------------------------------------------------------------------------

 
 
 KPOINTS: kpoints                                 

Automatic generation of k-mesh.
 Grid dimensions read from file:
 generate k-points for:    1    1    1

 Generating k-lattice:

  Cartesian coordinates                     Fractional coordinates (reciprocal lattice)
     0.044189604  0.000000000  0.000000000     1.000000000  0.000000000  0.000000000
     0.000000000  0.076666618  0.000000000     0.000000000  1.000000000  0.000000000
     0.000000000  0.000000000  0.066666667     0.000000000  0.000000000  1.000000000

  Length of vectors
     0.044189604  0.076666618  0.066666667

  Shift w.r.t. Gamma in fractional coordinates (k-lattice)
     0.000000000  0.000000000  0.000000000

 
 Subroutine IBZKPT returns following result:
 ===========================================
 
 Found      1 irreducible k-points:
 
 Following reciprocal coordinates:
            Coordinates               Weight
  0.000000  0.000000  0.000000      1.000000
 
 Following cartesian coordinates:
            Coordinates               Weight
  0.000000  0.000000  0.000000      1.000000
 
 
 Subroutine IBZKPT_HF returns following result:
 ==============================================
 
 Found      1 k-points in 1st BZ
 the following      1 k-points will be used (e.g. in the exchange kernel)
 Following reciprocal coordinates:   # in IRBZ
  0.000000  0.000000  0.000000    1.00000000   1 t-inv F


--------------------------------------------------------------------------------------------------------




 Dimension of arrays:
   k-points           NKPTS =      1   k-points in BZ     NKDIM =      1   number of bands    NBANDS=    272
   number of dos      NEDOS =    301   number of ions     NIONS =    107
   non local maximal  LDIM  =      4   non local SUM 2l+1 LMDIM =      8
   total plane-waves  NPLWV = ******
   max r-space proj   IRMAX =   1680   max aug-charges    IRDMAX=   3749
   dimension x,y,z NGX =   140 NGY =   80 NGZ =   90
   dimension x,y,z NGXF=   280 NGYF=  160 NGZF=  180
   support grid    NGXF=   280 NGYF=  160 NGZF=  180
   ions per type =              53  51   3
   NGX,Y,Z   is equivalent  to a cutoff of  10.28, 10.20,  9.97 a.u.
   NGXF,Y,Z  is equivalent  to a cutoff of  20.57, 20.39, 19.95 a.u.

 SYSTEM =  hBN                                     
 POSCAR =  POSCAR                                  

 Startparameter for this run:
   NWRITE =      2    write-flag & timer
   PREC   = normal    normal or accurate (medium, high low for compatibility)
   ISTART =      0    job   : 0-new  1-cont  2-samecut
   ICHARG =      2    charge: 1-file 2-atom 10-const
   ISPIN  =      2    spin polarized calculation?
   LNONCOLLINEAR =      F non collinear calculations
   LSORBIT =      F    spin-orbit coupling
   INIWAV =      1    electr: 0-lowe 1-rand  2-diag
   LASPH  =      F    aspherical Exc in radial PAW
   METAGGA=      F    non-selfconsistent MetaGGA calc.

 Electronic Relaxation 1
   ENCUT  =  600.0 eV  44.10 Ry    6.64 a.u.  45.20 26.05 29.96*2*pi/ulx,y,z
   ENINI  =  600.0     initial cutoff
   ENAUG  =  627.1 eV  augmentation charge cutoff
   NELM   =   1000;   NELMIN=  4; NELMDL= -5     # of ELM steps 
   EDIFF  = 0.1E-05   stopping-criterion for ELM
   LREAL  =      T    real-space projection
   NLSPLINE    = F    spline interpolate recip. space projectors
   LCOMPAT=      F    compatible to vasp.4.4
   GGA_COMPAT  = T    GGA compatible to vasp.4.4-vasp.4.6
   LMAXPAW     = -100 max onsite density
   LMAXMIX     =    2 max onsite mixed and CHGCAR
   VOSKOWN=      0    Vosko Wilk Nusair interpolation
   ROPT   =   -0.00050  -0.00050  -0.00050
 Ionic relaxation
   EDIFFG = -.1E-01   stopping-criterion for IOM
   NSW    =    500    number of steps for IOM
   NBLOCK =      1;   KBLOCK =    500    inner block; outer block 
   IBRION =      2    ionic relax: 0-MD 1-quasi-New 2-CG
   NFREE  =      1    steps in history (QN), initial steepest desc. (CG)
   ISIF   =      2    stress and relaxation
   IWAVPR =     11    prediction:  0-non 1-charg 2-wave 3-comb
   ISYM   =      2    0-nonsym 1-usesym 2-fastsym
   LCORR  =      T    Harris-Foulkes like correction to forces

   POTIM  = 0.5000    time-step for ionic-motion
   TEIN   =    0.0    initial temperature
   TEBEG  =    0.0;   TEEND  =   0.0 temperature during run
   SMASS  =  -3.00    Nose mass-parameter (am)
   estimated Nose-frequenzy (Omega)   =  0.10E-29 period in steps = 0.13E+47 mass=  -0.117E-25a.u.
   SCALEE = 1.0000    scale energy and forces
   NPACO  =    256;   APACO  = 16.0  distance and # of slots for P.C.
   PSTRESS=    0.0 pullay stress

  Mass of Ions in am
   POMASS =  10.81 14.00 14.00
  Ionic Valenz
   ZVAL   =   3.00  5.00  5.00
  Atomic Wigner-Seitz radii
   RWIGS  =  -1.00 -1.00 -1.00
  virtual crystal weights 
   VCA    =   1.00  1.00  1.00
   NELECT =     430.0000    total number of electrons
   NUPDOWN=      -1.0000    fix difference up-down

 DOS related values:
   EMIN   =  10.00;   EMAX   =-10.00  energy-range for DOS
   EFERMI =   0.00
   ISMEAR =     0;   SIGMA  =   0.03  broadening in eV -4-tet -1-fermi 0-gaus

 Electronic relaxation 2 (details)
   IALGO  =     38    algorithm
   LDIAG  =      T    sub-space diagonalisation (order eigenvalues)
   LSUBROT=      F    optimize rotation matrix (better conditioning)
   TURBO    =      0    0=normal 1=particle mesh
   IRESTART =      0    0=no restart 2=restart with 2 vectors
   NREBOOT  =      0    no. of reboots
   NMIN     =      0    reboot dimension
   EREF     =   0.00    reference energy to select bands
   IMIX   =      4    mixing-type and parameters
     AMIX     =   0.40;   BMIX     =  1.00
     AMIX_MAG =   1.60;   BMIX_MAG =  1.00
     AMIN     =   0.10
     WC   =   100.;   INIMIX=   1;  MIXPRE=   1;  MAXMIX= -45

 Intra band minimization:
   WEIMIN = 0.0010     energy-eigenvalue tresh-hold
   EBREAK =  0.92E-09  absolut break condition
   DEPER  =   0.30     relativ break condition  

   TIME   =   0.40     timestep for ELM

  volume/ion in A,a.u.               =      41.38       279.24
  Fermi-wavevector in a.u.,A,eV,Ry     =   0.752505  1.422028  7.704486  0.566264
  Thomas-Fermi vector in A             =   1.849731
 
 Write flags
   LWAVE        =      T    write WAVECAR
   LDOWNSAMPLE  =      F    k-point downsampling of WAVECAR
   LCHARG       =      T    write CHGCAR
   LVTOT        =      F    write LOCPOT, total local potential
   LVHAR        =      F    write LOCPOT, Hartree potential only
   LELF         =      F    write electronic localiz. function (ELF)
   LORBIT       =      0    0 simple, 1 ext, 2 COOP (PROOUT), +10 PAW based schemes


 Dipole corrections
   LMONO  =      F    monopole corrections only (constant potential shift)
   LDIPOL =      F    correct potential (dipole corrections)
   IDIPOL =      0    1-x, 2-y, 3-z, 4-all directions 
   EPSILON=  1.0000000 bulk dielectric constant

 Exchange correlation treatment:
   GGA     =    --    GGA type
   LEXCH   =     8    internal setting for exchange type
   VOSKOWN=      0    Vosko Wilk Nusair interpolation
   EXXOEP  =     0    0=HF, 1=EXX-LHF (local Hartree Fock) 2=EXX OEP
   LHFCALC =     T    Hartree Fock is set to
   LSYMGRAD=     F    symmetrize gradient (conserves proper symmetry)
   PRECFOCK=normal    Normal, Fast or Accurate (Low or Medium for compatibility)
   LRHFCALC=     F    long range Hartree Fock
   LRSCOR  =     F    long range correlation only (use DFT for short range part)
   LTHOMAS =     F    Thomas Fermi screening in HF
   LMODELHF=     F    short range full HF, long range fraction AEXX
   LFOCKACE=     T    use Adeptively-Compressed-Exchange operator
   ENCUT4O =  -1.0   cutoff for four orbital integrals eV
   LMAXFOCK=     4    L truncation for augmentation on plane wave grid
   LMAXFOCKAE=  -1    L truncation for all-electron charge restoration on plane wave grid
   NMAXFOCKAE=   1    number of basis functions for all-electron charge restoration
   LFOCKAEDFT=     F  apply the AE augmentation even for DFT
   NKREDX  =     1    reduce k-point grid by
   NKREDY  =     1    reduce k-point grid by
   NKREDZ  =     1    reduce k-point grid by
   SHIFTRED=     F    shift reduced grid of Gamma
   HFKIDENT=     F    idential grid for each k-point
   ODDONLY =     F    use only odd q-grid points
   EVENONLY=     F    use only even q-grid points
   HFALPHA =   -1.0000 decay constant for conv. correction
   MCALPHA =    0.0000 extent of test-charge in conv. correction in multipole expansion
   AEXX    =    0.0000 exact exchange contribution
   HFSCREEN=    0.0000 screening length (either q_TF or 0.3 A-1)
   HFSCREENC=   0.0000 screening length for correlation (either q_TF or 0.3 A-1)
   HFRCUT  =    0.0000 spherical cutoff for potential kernel
   ALDAX   =    1.0000 LDA exchange part
   AGGAX   =    1.0000 GGA exchange part
   ALDAC   =    1.0000 LDA correlation
   AGGAC   =    1.0000 GGA correlation
   ENCUTFOCK=  -1.0 apply spherical cutoff to Coloumb kernel
   NBANDSGWLOW=     1    first orbital included in HF term
   NBLOCK_FOCK=    64    blocking factor in FOCK_ACC
 Linear response parameters
   LEPSILON=     F    determine dielectric tensor
   LRPA    =     F    only Hartree local field effects (RPA)
   LNABLA  =     F    use nabla operator in PAW spheres
   LVEL    =     F    velocity operator in full k-point grid
   LINTERFAST=   F  fast interpolation
   KINTER  =     0    interpolate to denser k-point grid
   CSHIFT  =0.1000    complex shift for real part using Kramers Kronig
   OMEGAMAX=  -1.0    maximum frequency
   DEG_THRESHOLD= 0.2000000E-02 threshold for treating states as degnerate
   RTIME   =   -0.100 relaxation time in fs
  (WPLASMAI=    0.000 imaginary part of plasma frequency in eV, 0.658/RTIME)
   DFIELD  = 0.0000000 0.0000000 0.0000000 field for delta impulse in time
 
 Orbital magnetization related:
   ORBITALMAG=     F  switch on orbital magnetization
   LCHIMAG   =     F  perturbation theory with respect to B field
   DQ        =  0.001000  dq finite difference perturbation B field
   LLRAUG    =     F  two centre corrections for induced B field



--------------------------------------------------------------------------------------------------------


 conjugate gradient relaxation of ions
 charge density and potential will be updated during run
 spin polarized calculation
 Variant of blocked Davidson
 Davidson routine will perform the subspace rotation
 perform sub-space diagonalisation
    after iterative eigenvector-optimisation
 modified Broyden-mixing scheme, WC =      100.0
 initial mixing is a Kerker type mixing with AMIX =  0.4000 and BMIX =      1.0000
 Hartree-type preconditioning will be used
 using additional bands           57
 real space projection scheme for non local part
 use partial core corrections
 calculate Harris-corrections to forces 
   (improved forces if not selfconsistent)
 use gradient corrections 
 use of overlap-Matrix (Vanderbilt PP)
 Gauss-broadening in eV      SIGMA  =   0.03


--------------------------------------------------------------------------------------------------------


  energy-cutoff  :      600.00
  volume of cell :     4427.56
      direct lattice vectors                 reciprocal lattice vectors
    22.629756900  0.000000000  0.000000000     0.044189604  0.000000000  0.000000000
     0.000000000 13.043486600  0.000000000     0.000000000  0.076666618  0.000000000
     0.000000000  0.000000000 15.000000000     0.000000000  0.000000000  0.066666667

  length of vectors
    22.629756900 13.043486600 15.000000000     0.044189604  0.076666618  0.066666667


 
 k-points in units of 2pi/SCALE and weight: kpoints                                 
   0.00000000  0.00000000  0.00000000       1.000
 
 k-points in reciprocal lattice and weights: kpoints                                 
   0.00000000  0.00000000  0.00000000       1.000
 
 position of ions in fractional coordinates (direct lattice) 
   0.05555753  0.16640608  0.50000000
   0.05558888  0.49969114  0.50000000
   0.05556638  0.83296948  0.50000000
   0.16671039  0.16657338  0.50000000
   0.16669480  0.49979805  0.50000000
   0.16675821  0.83311675  0.50000000
   0.27777347  0.16684628  0.50000000
   0.27786535  0.49997407  0.50000000
   0.27791490  0.83343966  0.50000000
   0.38890852  0.16724124  0.50000000
   0.38959996  0.50073975  0.50000000
   0.38903849  0.83356363  0.50000000
   0.50000000  0.16761038  0.50000000
   0.50000000  0.83356379  0.50000000
   0.61109148  0.16724124  0.50000000
   0.61040004  0.50073975  0.50000000
   0.61096151  0.83356363  0.50000000
   0.72222653  0.16684628  0.50000000
   0.72213465  0.49997407  0.50000000
   0.72208510  0.83343966  0.50000000
   0.83328961  0.16657338  0.50000000
   0.83330520  0.49979805  0.50000000
   0.83324179  0.83311675  0.50000000
   0.94444247  0.16640608  0.50000000
   0.94441112  0.49969114  0.50000000
   0.94443362  0.83296948  0.50000000
   0.00000000  0.99966951  0.50000000
   0.00000000  0.33309921  0.50000000
   0.00000000  0.66625012  0.50000000
   0.11112964  0.99977668  0.50000000
   0.11113529  0.33309427  0.50000000
   0.11115060  0.66641490  0.50000000
   0.22225748  0.99996426  0.50000000
   0.22228474  0.33329814  0.50000000
   0.22235064  0.66654481  0.50000000
   0.33338637  0.00031459  0.50000000
   0.33345684  0.33367485  0.50000000
   0.33347098  0.66680035  0.50000000
   0.44448945  0.00058187  0.50000000
   0.44500942  0.33499885  0.50000000
   0.44474347  0.66547547  0.50000000
   0.55551055  0.00058187  0.50000000
   0.55499058  0.33499885  0.50000000
   0.55525653  0.66547547  0.50000000
   0.66661363  0.00031459  0.50000000
   0.66654316  0.33367485  0.50000000
   0.66652902  0.66680035  0.50000000
   0.77774252  0.99996426  0.50000000
   0.77771526  0.33329814  0.50000000
   0.77764936  0.66654481  0.50000000
   0.88887036  0.99977668  0.50000000
   0.88886471  0.33309427  0.50000000
   0.88884940  0.66641490  0.50000000
   0.05549000  0.27758601  0.50000000
   0.05551221  0.61088518  0.50000000
   0.05550464  0.94421643  0.50000000
   0.16648748  0.27767813  0.50000000
   0.16649409  0.61105912  0.50000000
   0.16652956  0.94437783  0.50000000
   0.27746003  0.27778090  0.50000000
   0.27743396  0.61134570  0.50000000
   0.27759351  0.94472338  0.50000000
   0.38850068  0.27768588  0.50000000
   0.38822523  0.61209808  0.50000000
   0.38874624  0.94504668  0.50000000
   0.50000000  0.27742138  0.50000000
   0.50000000  0.94517539  0.50000000
   0.61149932  0.27768588  0.50000000
   0.61177477  0.61209808  0.50000000
   0.61125376  0.94504668  0.50000000
   0.72253997  0.27778090  0.50000000
   0.72256604  0.61134570  0.50000000
   0.72240649  0.94472338  0.50000000
   0.83351252  0.27767813  0.50000000
   0.83350591  0.61105912  0.50000000
   0.83347044  0.94437783  0.50000000
   0.94451000  0.27758601  0.50000000
   0.94448779  0.61088518  0.50000000
   0.94449536  0.94421643  0.50000000
   0.00000000  0.11087959  0.50000000
   0.00000000  0.44425556  0.50000000
   0.00000000  0.77748810  0.50000000
   0.11101002  0.11096664  0.50000000
   0.11098088  0.44426176  0.50000000
   0.11102368  0.77763604  0.50000000
   0.22201367  0.11110401  0.50000000
   0.22191162  0.44440890  0.50000000
   0.22206837  0.77790492  0.50000000
   0.33308267  0.11133936  0.50000000
   0.33271823  0.44456929  0.50000000
   0.33308545  0.77840399  0.50000000
   0.44432938  0.11144068  0.50000000
   0.44428542  0.77885084  0.50000000
   0.55567062  0.11144068  0.50000000
   0.55571458  0.77885084  0.50000000
   0.66691733  0.11133936  0.50000000
   0.66728177  0.44456929  0.50000000
   0.66691455  0.77840399  0.50000000
   0.77798633  0.11110401  0.50000000
   0.77808838  0.44440890  0.50000000
   0.77793163  0.77790492  0.50000000
   0.88898998  0.11096664  0.50000000
   0.88901912  0.44426176  0.50000000
   0.88897632  0.77763604  0.50000000
   0.55869181  0.44208792  0.50000000
   0.44130819  0.44208792  0.50000000
   0.50000000  0.61721713  0.50000000
 
 position of ions in cartesian coordinates  (Angst):
   1.25725332  2.17051546  7.50000000
   1.25796291  6.51771473  7.50000000
   1.25745356 10.86482627  7.50000000
   3.77261568  2.17269766  7.50000000
   3.77226282  6.51910916  7.50000000
   3.77369781 10.86674711  7.50000000
   6.28594602  2.17625720  7.50000000
   6.28802526  6.52140506  7.50000000
   6.28914674 10.87095898  7.50000000
   8.80090528  2.18140892  7.50000000
   8.81655246  6.53139224  7.50000000
   8.80384637 10.87257604  7.50000000
  11.31487845  2.18622375  7.50000000
  11.31487845 10.87257817  7.50000000
  13.82885162  2.18140892  7.50000000
  13.81320444  6.53139224  7.50000000
  13.82591053 10.87257604  7.50000000
  16.34381088  2.17625720  7.50000000
  16.34173164  6.52140506  7.50000000
  16.34061016 10.87095898  7.50000000
  18.85714122  2.17269766  7.50000000
  18.85749408  6.51910916  7.50000000
  18.85605909 10.86674711  7.50000000
  21.37250358  2.17051546  7.50000000
  21.37179399  6.51771473  7.50000000
  21.37230334 10.86482627  7.50000000
   0.00000000 13.03917581  7.50000000
   0.00000000  4.34477510  7.50000000
   0.00000000  8.69022448  7.50000000
   2.51483666 13.04057378  7.50000000
   2.51496452  4.34471058  7.50000000
   2.51531104  8.69237382  7.50000000
   5.02963277 13.04302038  7.50000000
   5.03024965  4.34736987  7.50000000
   5.03174103  8.69406836  7.50000000
   7.54445252  0.00410339  7.50000000
   7.54604724  4.35228343  7.50000000
   7.54636713  8.69740140  7.50000000
  10.05868819  0.00758958  7.50000000
  10.07045497  4.36955304  7.50000000
  10.06443670  8.68012039  7.50000000
  12.57106871  0.00758958  7.50000000
  12.55930193  4.36955304  7.50000000
  12.56532020  8.68012039  7.50000000
  15.08530438  0.00410339  7.50000000
  15.08370966  4.35228343  7.50000000
  15.08338977  8.69740140  7.50000000
  17.60012413 13.04302038  7.50000000
  17.59950725  4.34736987  7.50000000
  17.59801587  8.69406836  7.50000000
  20.11492024 13.04057378  7.50000000
  20.11479238  4.34471058  7.50000000
  20.11444586  8.69237382  7.50000000
   1.25572517  3.62068935  7.50000000
   1.25622788  7.96807272  7.50000000
   1.25605652 12.31587441  7.50000000
   3.76757125  3.62189101  7.50000000
   3.76772076  7.97034144  7.50000000
   3.76852348 12.31797954  7.50000000
   6.27885301  3.62323139  7.50000000
   6.27826300  7.97407939  7.50000000
   6.28187374 12.32248671  7.50000000
   8.79167601  3.62199211  7.50000000
   8.78544266  7.98389316  7.50000000
   8.79723301 12.32670366  7.50000000
  11.31487845  3.61854211  7.50000000
  11.31487845 12.32838248  7.50000000
  13.83808089  3.62199211  7.50000000
  13.84431424  7.98389316  7.50000000
  13.83252389 12.32670366  7.50000000
  16.35090389  3.62323139  7.50000000
  16.35149390  7.97407939  7.50000000
  16.34788316 12.32248671  7.50000000
  18.86218565  3.62189101  7.50000000
  18.86203614  7.97034144  7.50000000
  18.86123342 12.31797954  7.50000000
  21.37403173  3.62068935  7.50000000
  21.37352902  7.96807272  7.50000000
  21.37370038 12.31587441  7.50000000
   0.00000000  1.44625641  7.50000000
   0.00000000  5.79464146  7.50000000
   0.00000000 10.14115556  7.50000000
   2.51212966  1.44739192  7.50000000
   2.51147044  5.79472234  7.50000000
   2.51243886 10.14308529  7.50000000
   5.02411539  1.44918370  7.50000000
   5.02180599  5.79664153  7.50000000
   5.02535318 10.14659234  7.50000000
   7.53757981  1.45225345  7.50000000
   7.52933259  5.79873352  7.50000000
   7.53764281 10.15310205  7.50000000
  10.05506580  1.45357496  7.50000000
  10.05407114 10.15893053  7.50000000
  12.57469110  1.45357496  7.50000000
  12.57568576 10.15893053  7.50000000
  15.09217709  1.45225345  7.50000000
  15.10042431  5.79873352  7.50000000
  15.09211409 10.15310205  7.50000000
  17.60564151  1.44918370  7.50000000
  17.60795091  5.79664153  7.50000000
  17.60440372 10.14659234  7.50000000
  20.11762724  1.44739192  7.50000000
  20.11828646  5.79472234  7.50000000
  20.11731804 10.14308529  7.50000000
  12.64305988  5.76636787  7.50000000
   9.98669702  5.76636787  7.50000000
  11.31487845  8.05066342  7.50000000
 


--------------------------------------------------------------------------------------------------------


 use parallel FFT for orbitals z direction half grid
 k-point   1 :   0.0000 0.0000 0.0000  plane waves:   73871

 maximum and minimum number of plane-waves per node :      6162     6150

 maximum number of plane-waves:     73871
 maximum index in each direction: 
   IXMAX=   45   IYMAX=   26   IZMAX=   29
   IXMIN=  -45   IYMIN=  -26   IZMIN=    0


 real space projection operators:
  total allocation   :       8397.00 KBytes
  max/ min on nodes  :        732.00        656.12


 parallel 3D FFT for wavefunctions:
    minimum data exchange during FFTs selected (reduces bandwidth)
 parallel 3D FFT for charge:
    minimum data exchange during FFTs selected (reduces bandwidth)

 
 Radii for the augmentation spheres in the non-local exchange
 for species   1 augmentation radius   0.959 (default was   0.767)
       energy cutoff for augmentation   2400.0
 for species   2 augmentation radius   0.886 (default was   0.709)
       energy cutoff for augmentation   2400.0
 for species   3 augmentation radius   0.886 (default was   0.709)
       energy cutoff for augmentation   2400.0

 real space projection operators:
  total allocation   :       5662.97 KBytes
  max/ min on nodes  :        492.19        441.35

 Maximum index for augmentation-charges in exchange          106
  SETUP_FOCK is finished

 total amount of memory used by VASP MPI-rank0    59101. kBytes
=======================================================================

   base      :      30000. kBytes
   nonlr-proj:       1467. kBytes
   fftplans  :       6234. kBytes
   grid      :      14615. kBytes
   one-center:         27. kBytes
   HF        :          9. kBytes
   wavefun   :       6749. kBytes
 
     INWAV:  cpu time    0.0000: real time    0.0003
 Broyden mixing: mesh for mixing (old mesh)
   NGX = 91   NGY = 53   NGZ = 59
  (NGX  =280   NGY  =160   NGZ  =180)
  gives a total of 284557 points

 initial charge density was supplied:
 charge density of overlapping atoms calculated
 number of electron     429.0000000 magnetization       4.5000000
 keeping initial charge density in first step


--------------------------------------------------------------------------------------------------------


 Maximum index for non-local projection operator          167
 Maximum index for augmentation-charges          275 (set IRDMAX)


--------------------------------------------------------------------------------------------------------


    FEWALD:  cpu time    0.0029: real time    0.0029


--------------------------------------- Iteration      1(   1)  ---------------------------------------


    POTLOK:  cpu time    0.1343: real time    0.1356
    SETDIJ:  cpu time    0.4266: real time    0.4280
     EDDAV:  cpu time    2.0926: real time    2.0996
       DOS:  cpu time    0.0017: real time    0.0017
    --------------------------------------------
      LOOP:  cpu time    2.6553: real time    2.6648

 eigenvalue-minimisations  :  1136
 total energy-change (2. order) : 0.5617870E+04  (-0.1906824E+05)
 number of electron     429.0000000 magnetization       4.5000000
 augmentation part      429.0000000 magnetization       4.5000000

 Free energy of the ion-electron system (eV)
  ---------------------------------------------------
  alpha Z        PSCENC =       230.51202042
  Ewald energy   TEWEN  =     41549.06738996
  -Hartree energ DENC   =    -55362.67760785
  -exchange      EXHF   =         0.00000000
  -V(xc)+E(xc)   XCENC  =      1444.99563369
  PAW double counting   =     13370.93527550   -13389.87289683
  entropy T*S    EENTRO =        -0.01861857
  eigenvalues    EBANDS =      -282.12869272
  atomic energy  EATOM  =     18057.05744655
  Solvation  Ediel_sol  =         0.00000000
  ---------------------------------------------------
  free energy    TOTEN  =      5617.86995016 eV

  energy without entropy =     5617.88856873  energy(sigma->0) =     5617.87925944
  exchange ACFDT corr.  =         0.00000000  see jH, gK, PRB 81, 115126


--------------------------------------------------------------------------------------------------------




--------------------------------------- Iteration      1(   2)  ---------------------------------------


     EDDAV:  cpu time    2.8952: real time    2.9061
       DOS:  cpu time    0.0011: real time    0.0011
    --------------------------------------------
      LOOP:  cpu time    2.8963: real time    2.9071

 eigenvalue-minimisations  :  1736
 total energy-change (2. order) :-0.5448697E+04  (-0.5203726E+04)
 number of electron     429.0000000 magnetization       4.5000000
 augmentation part      429.0000000 magnetization       4.5000000

 Free energy of the ion-electron system (eV)
  ---------------------------------------------------
  alpha Z        PSCENC =       230.51202042
  Ewald energy   TEWEN  =     41549.06738996
  -Hartree energ DENC   =    -55362.67760785
  -exchange      EXHF   =         0.00000000
  -V(xc)+E(xc)   XCENC  =      1444.99563369
  PAW double counting   =     13370.93527550   -13389.87289683
  entropy T*S    EENTRO =        -0.00000086
  eigenvalues    EBANDS =     -5730.84411010
  atomic energy  EATOM  =     18057.05744655
  Solvation  Ediel_sol  =         0.00000000
  ---------------------------------------------------
  free energy    TOTEN  =       169.17315049 eV

  energy without entropy =      169.17315135  energy(sigma->0) =      169.17315092
  exchange ACFDT corr.  =         0.00000000  see jH, gK, PRB 81, 115126


--------------------------------------------------------------------------------------------------------




--------------------------------------- Iteration      1(   3)  ---------------------------------------


     EDDAV:  cpu time    2.3729: real time    2.3805
       DOS:  cpu time    0.0008: real time    0.0008
    --------------------------------------------
      LOOP:  cpu time    2.3737: real time    2.3814

 eigenvalue-minimisations  :  1352
 total energy-change (2. order) :-0.1150134E+04  (-0.1142885E+04)
 number of electron     429.0000000 magnetization       4.5000000
 augmentation part      429.0000000 magnetization       4.5000000

 Free energy of the ion-electron system (eV)
  ---------------------------------------------------
  alpha Z        PSCENC =       230.51202042
  Ewald energy   TEWEN  =     41549.06738996
  -Hartree energ DENC   =    -55362.67760785
  -exchange      EXHF   =         0.00000000
  -V(xc)+E(xc)   XCENC  =      1444.99563369
  PAW double counting   =     13370.93527550   -13389.87289683
  entropy T*S    EENTRO =        -0.00000000
  eigenvalues    EBANDS =     -6880.97806261
  atomic energy  EATOM  =     18057.05744655
  Solvation  Ediel_sol  =         0.00000000
  ---------------------------------------------------
  free energy    TOTEN  =      -980.96080117 eV

  energy without entropy =     -980.96080117  energy(sigma->0) =     -980.96080117
  exchange ACFDT corr.  =         0.00000000  see jH, gK, PRB 81, 115126


--------------------------------------------------------------------------------------------------------




--------------------------------------- Iteration      1(   4)  ---------------------------------------


     EDDAV:  cpu time    2.2800: real time    2.2881
       DOS:  cpu time    0.0005: real time    0.0005
    --------------------------------------------
      LOOP:  cpu time    2.2805: real time    2.2886

 eigenvalue-minimisations  :  1296
 total energy-change (2. order) :-0.5846978E+02  (-0.5818134E+02)
 number of electron     429.0000000 magnetization       4.5000000
 augmentation part      429.0000000 magnetization       4.5000000

 Free energy of the ion-electron system (eV)
  ---------------------------------------------------
  alpha Z        PSCENC =       230.51202042
  Ewald energy   TEWEN  =     41549.06738996
  -Hartree energ DENC   =    -55362.67760785
  -exchange      EXHF   =         0.00000000
  -V(xc)+E(xc)   XCENC  =      1444.99563369
  PAW double counting   =     13370.93527550   -13389.87289683
  entropy T*S    EENTRO =        -0.00000000
  eigenvalues    EBANDS =     -6939.44783914
  atomic energy  EATOM  =     18057.05744655
  Solvation  Ediel_sol  =         0.00000000
  ---------------------------------------------------
  free energy    TOTEN  =     -1039.43057770 eV

  energy without entropy =    -1039.43057770  energy(sigma->0) =    -1039.43057770
  exchange ACFDT corr.  =         0.00000000  see jH, gK, PRB 81, 115126


--------------------------------------------------------------------------------------------------------




--------------------------------------- Iteration      1(   5)  ---------------------------------------


    POTLOK:  cpu time    0.1286: real time    0.1307
    SETDIJ:  cpu time    0.4247: real time    0.4260
     EDDAV:  cpu time    2.3591: real time    2.3663
       DOS:  cpu time    0.0013: real time    0.0013
    CHARGE:  cpu time    0.2413: real time    0.2420
    MIXING:  cpu time    0.0032: real time    0.0038
    --------------------------------------------
      LOOP:  cpu time    3.1583: real time    3.1701

 eigenvalue-minimisations  :  1344
 total energy-change (2. order) :-0.1384607E+01  (-0.1381472E+01)
 number of electron     429.9999956 magnetization       4.2137090
 augmentation part       16.8397917 magnetization       2.4912908

 Broyden mixing:
  rms(total) = 0.58285E+01    rms(broyden)= 0.58277E+01
  rms(prec ) = 0.62132E+01
  weight for this iteration     100.00

 Free energy of the ion-electron system (eV)
  ---------------------------------------------------
  alpha Z        PSCENC =       230.51202042
  Ewald energy   TEWEN  =     41549.06738996
  -Hartree energ DENC   =    -55362.67760785
  -exchange      EXHF   =         0.00000000
  -V(xc)+E(xc)   XCENC  =      1444.99563369
  PAW double counting   =     13370.93527550   -13389.87289683
  entropy T*S    EENTRO =        -0.00000000
  eigenvalues    EBANDS =     -6940.83244580
  atomic energy  EATOM  =     18057.05744655
  Solvation  Ediel_sol  =         0.00000000
  ---------------------------------------------------
  free energy    TOTEN  =     -1040.81518435 eV

  energy without entropy =    -1040.81518435  energy(sigma->0) =    -1040.81518435
  exchange ACFDT corr.  =         0.00000000  see jH, gK, PRB 81, 115126


--------------------------------------------------------------------------------------------------------




--------------------------------------- Iteration      1(   6)  ---------------------------------------


    POTLOK:  cpu time    0.1281: real time    0.1296
    SETDIJ:  cpu time    0.7755: real time    0.7774
     EDDAV:  cpu time    2.1025: real time    2.1092
       DOS:  cpu time    0.0005: real time    0.0005
    CHARGE:  cpu time    0.2387: real time    0.2396
    MIXING:  cpu time    0.0033: real time    0.0033
    --------------------------------------------
      LOOP:  cpu time    3.2486: real time    3.2597

 eigenvalue-minimisations  :  1184
 total energy-change (2. order) : 0.8901946E+02  (-0.2603280E+02)
 number of electron     429.9999963 magnetization       3.9219104
 augmentation part       13.4228002 magnetization       2.1410420

 Broyden mixing:
  rms(total) = 0.26236E+01    rms(broyden)= 0.26234E+01
  rms(prec ) = 0.27381E+01
  weight for this iteration     100.00

 eigenvalues of (default mixing * dielectric matrix)
  average eigenvalue GAMMA=   1.1055
  1.1055

 Free energy of the ion-electron system (eV)
  ---------------------------------------------------
  alpha Z        PSCENC =       230.51202042
  Ewald energy   TEWEN  =     41549.06738996
  -Hartree energ DENC   =    -56311.95489896
  -exchange      EXHF   =         0.00000000
  -V(xc)+E(xc)   XCENC  =      1493.18499498
  PAW double counting   =     24035.97993336   -24067.37565117
  entropy T*S    EENTRO =        -0.00000000
  eigenvalues    EBANDS =     -5938.26695640
  atomic energy  EATOM  =     18057.05744655
  Solvation  Ediel_sol  =         0.00000000
  ---------------------------------------------------
  free energy    TOTEN  =      -951.79572126 eV

  energy without entropy =     -951.79572126  energy(sigma->0) =     -951.79572126
  exchange ACFDT corr.  =         0.00000000  see jH, gK, PRB 81, 115126


--------------------------------------------------------------------------------------------------------




--------------------------------------- Iteration      1(   7)  ---------------------------------------


    POTLOK:  cpu time    0.1286: real time    0.1299
    SETDIJ:  cpu time    0.7255: real time    0.7275
     EDDAV:  cpu time    2.1574: real time    2.1654
       DOS:  cpu time    0.0003: real time    0.0003
    CHARGE:  cpu time    0.2374: real time    0.2380
    MIXING:  cpu time    0.0031: real time    0.0031
    --------------------------------------------
      LOOP:  cpu time    3.2525: real time    3.2643

 eigenvalue-minimisations  :  1224
 total energy-change (2. order) : 0.9997565E+01  (-0.1688467E+01)
 number of electron     429.9999966 magnetization       3.4135004
 augmentation part       12.9202573 magnetization       1.6158219

 Broyden mixing:
  rms(total) = 0.16110E+01    rms(broyden)= 0.16109E+01
  rms(prec ) = 0.16757E+01
  weight for this iteration     100.00

 eigenvalues of (default mixing * dielectric matrix)
  average eigenvalue GAMMA=   1.4710
  1.0371  1.9049

 Free energy of the ion-electron system (eV)
  ---------------------------------------------------
  alpha Z        PSCENC =       230.51202042
  Ewald energy   TEWEN  =     41549.06738996
  -Hartree energ DENC   =    -56711.00681815
  -exchange      EXHF   =         0.00000000
  -V(xc)+E(xc)   XCENC  =      1506.62451609
  PAW double counting   =     33892.68250566   -33929.32205808
  entropy T*S    EENTRO =        -0.00000000
  eigenvalues    EBANDS =     -5537.41315847
  atomic energy  EATOM  =     18057.05744655
  Solvation  Ediel_sol  =         0.00000000
  ---------------------------------------------------
  free energy    TOTEN  =      -941.79815603 eV

  energy without entropy =     -941.79815603  energy(sigma->0) =     -941.79815603
  exchange ACFDT corr.  =         0.00000000  see jH, gK, PRB 81, 115126


--------------------------------------------------------------------------------------------------------




--------------------------------------- Iteration      1(   8)  ---------------------------------------


    POTLOK:  cpu time    0.1284: real time    0.1288
    SETDIJ:  cpu time    0.8133: real time    0.8157
     EDDAV:  cpu time    2.1049: real time    2.1115
       DOS:  cpu time    0.0006: real time    0.0006
    CHARGE:  cpu time    0.2416: real time    0.2422
    MIXING:  cpu time    0.0040: real time    0.0041
    --------------------------------------------
      LOOP:  cpu time    3.2928: real time    3.3029

 eigenvalue-minimisations  :  1184
 total energy-change (2. order) : 0.4927166E+01  (-0.1050694E+01)
 number of electron     429.9999966 magnetization       3.2561664
 augmentation part       12.8125836 magnetization       1.4670883

 Broyden mixing:
  rms(total) = 0.42608E+00    rms(broyden)= 0.42602E+00
  rms(prec ) = 0.46221E+00
  weight for this iteration     100.00

 eigenvalues of (default mixing * dielectric matrix)
  average eigenvalue GAMMA=   1.4373
  2.5249  1.1072  0.6797

 Free energy of the ion-electron system (eV)
  ---------------------------------------------------
  alpha Z        PSCENC =       230.51202042
  Ewald energy   TEWEN  =     41549.06738996
  -Hartree energ DENC   =    -57162.17212618
  -exchange      EXHF   =         0.00000000
  -V(xc)+E(xc)   XCENC  =      1518.68413382
  PAW double counting   =     48103.11311033   -48144.07907393
  entropy T*S    EENTRO =        -0.00000000
  eigenvalues    EBANDS =     -5089.05389061
  atomic energy  EATOM  =     18057.05744655
  Solvation  Ediel_sol  =         0.00000000
  ---------------------------------------------------
  free energy    TOTEN  =      -936.87098965 eV

  energy without entropy =     -936.87098965  energy(sigma->0) =     -936.87098965
  exchange ACFDT corr.  =         0.00000000  see jH, gK, PRB 81, 115126


--------------------------------------------------------------------------------------------------------




--------------------------------------- Iteration      1(   9)  ---------------------------------------


    POTLOK:  cpu time    0.1307: real time    0.1320
    SETDIJ:  cpu time    0.7358: real time    0.7378
     EDDAV:  cpu time    2.1727: real time    2.1796
       DOS:  cpu time    0.0003: real time    0.0002
    CHARGE:  cpu time    0.2380: real time    0.2388
    MIXING:  cpu time    0.0037: real time    0.0037
    --------------------------------------------
      LOOP:  cpu time    3.2811: real time    3.2922

 eigenvalue-minimisations  :  1232
 total energy-change (2. order) :-0.8738404E-02  (-0.6329617E-01)
 number of electron     429.9999966 magnetization       3.1138138
 augmentation part       12.7519794 magnetization       1.3294177

 Broyden mixing:
  rms(total) = 0.17789E+00    rms(broyden)= 0.17787E+00
  rms(prec ) = 0.23224E+00
  weight for this iteration     100.00

 eigenvalues of (default mixing * dielectric matrix)
  average eigenvalue GAMMA=   1.2879
  2.4399  1.1447  0.8892  0.6778

 Free energy of the ion-electron system (eV)
  ---------------------------------------------------
  alpha Z        PSCENC =       230.51202042
  Ewald energy   TEWEN  =     41549.06738996
  -Hartree energ DENC   =    -57248.58387663
  -exchange      EXHF   =         0.00000000
  -V(xc)+E(xc)   XCENC  =      1520.40997722
  PAW double counting   =     49462.27066022   -49503.44636139
  entropy T*S    EENTRO =        -0.00000000
  eigenvalues    EBANDS =     -5004.16698439
  atomic energy  EATOM  =     18057.05744655
  Solvation  Ediel_sol  =         0.00000000
  ---------------------------------------------------
  free energy    TOTEN  =      -936.87972805 eV

  energy without entropy =     -936.87972805  energy(sigma->0) =     -936.87972805
  exchange ACFDT corr.  =         0.00000000  see jH, gK, PRB 81, 115126


--------------------------------------------------------------------------------------------------------




--------------------------------------- Iteration      1(  10)  ---------------------------------------


    POTLOK:  cpu time    0.1330: real time    0.1337
    SETDIJ:  cpu time    0.7421: real time    0.7440
     EDDAV:  cpu time    2.3018: real time    2.3095
       DOS:  cpu time    0.0002: real time    0.0002
    CHARGE:  cpu time    0.2384: real time    0.2390
    MIXING:  cpu time    0.0039: real time    0.0039
    --------------------------------------------
      LOOP:  cpu time    3.4195: real time    3.4303

 eigenvalue-minimisations  :  1328
 total energy-change (2. order) : 0.4336310E-01  (-0.1072680E-01)
 number of electron     429.9999966 magnetization       2.8443322
 augmentation part       12.7202793 magnetization       1.0651692

 Broyden mixing:
  rms(total) = 0.11087E+00    rms(broyden)= 0.11087E+00
  rms(prec ) = 0.16730E+00
  weight for this iteration     100.00

 eigenvalues of (default mixing * dielectric matrix)
  average eigenvalue GAMMA=   1.3682
  2.1708  2.1708  1.0482  0.7951  0.6563

 Free energy of the ion-electron system (eV)
  ---------------------------------------------------
  alpha Z        PSCENC =       230.51202042
  Ewald energy   TEWEN  =     41549.06738996
  -Hartree energ DENC   =    -57296.41316283
  -exchange      EXHF   =         0.00000000
  -V(xc)+E(xc)   XCENC  =      1520.68272072
  PAW double counting   =     48987.98247331   -49028.72368384
  entropy T*S    EENTRO =        -0.00000000
  eigenvalues    EBANDS =     -4957.00156924
  atomic energy  EATOM  =     18057.05744655
  Solvation  Ediel_sol  =         0.00000000
  ---------------------------------------------------
  free energy    TOTEN  =      -936.83636496 eV

  energy without entropy =     -936.83636496  energy(sigma->0) =     -936.83636496
  exchange ACFDT corr.  =         0.00000000  see jH, gK, PRB 81, 115126


--------------------------------------------------------------------------------------------------------




--------------------------------------- Iteration      1(  11)  ---------------------------------------


    POTLOK:  cpu time    0.1302: real time    0.1360
    SETDIJ:  cpu time    0.7092: real time    0.7112
     EDDAV:  cpu time    2.1338: real time    2.1409
       DOS:  cpu time    0.0005: real time    0.0005
    CHARGE:  cpu time    0.2380: real time    0.2386
    MIXING:  cpu time    0.0040: real time    0.0040
    --------------------------------------------
      LOOP:  cpu time    3.2157: real time    3.2312

 eigenvalue-minimisations  :  1192
 total energy-change (2. order) : 0.1117174E+00  (-0.7505043E-02)
 number of electron     429.9999966 magnetization       2.6678591
 augmentation part       12.7155622 magnetization       0.8900230

 Broyden mixing:
  rms(total) = 0.60343E-01    rms(broyden)= 0.60336E-01
  rms(prec ) = 0.10781E+00
  weight for this iteration     100.00

 eigenvalues of (default mixing * dielectric matrix)
  average eigenvalue GAMMA=   1.3841
  2.3938  2.3938  1.0674  1.0674  0.7553  0.6270

 Free energy of the ion-electron system (eV)
  ---------------------------------------------------
  alpha Z        PSCENC =       230.51202042
  Ewald energy   TEWEN  =     41549.06738996
  -Hartree energ DENC   =    -57394.80789098
  -exchange      EXHF   =         0.00000000
  -V(xc)+E(xc)   XCENC  =      1521.51990225
  PAW double counting   =     49050.38812296   -49090.75101733
  entropy T*S    EENTRO =        -0.00000000
  eigenvalues    EBANDS =     -4859.71062139
  atomic energy  EATOM  =     18057.05744655
  Solvation  Ediel_sol  =         0.00000000
  ---------------------------------------------------
  free energy    TOTEN  =      -936.72464756 eV

  energy without entropy =     -936.72464756  energy(sigma->0) =     -936.72464756
  exchange ACFDT corr.  =         0.00000000  see jH, gK, PRB 81, 115126


--------------------------------------------------------------------------------------------------------




--------------------------------------- Iteration      1(  12)  ---------------------------------------


    POTLOK:  cpu time    0.1294: real time    0.1299
    SETDIJ:  cpu time    0.7268: real time    0.7287
     EDDAV:  cpu time    2.1406: real time    2.1473
       DOS:  cpu time    0.0006: real time    0.0006
    CHARGE:  cpu time    0.2366: real time    0.2373
    MIXING:  cpu time    0.0040: real time    0.0040
    --------------------------------------------
      LOOP:  cpu time    3.2380: real time    3.2478

 eigenvalue-minimisations  :  1200
 total energy-change (2. order) : 0.1343225E-02  (-0.4775349E-02)
 number of electron     429.9999966 magnetization       2.3967143
 augmentation part       12.7133854 magnetization       0.6195612

 Broyden mixing:
  rms(total) = 0.41866E-01    rms(broyden)= 0.41862E-01
  rms(prec ) = 0.80024E-01
  weight for this iteration     100.00

 eigenvalues of (default mixing * dielectric matrix)
  average eigenvalue GAMMA=   1.3889
  2.5294  2.5294  1.1815  1.1815  0.9248  0.7581  0.6174

 Free energy of the ion-electron system (eV)
  ---------------------------------------------------
  alpha Z        PSCENC =       230.51202042
  Ewald energy   TEWEN  =     41549.06738996
  -Hartree energ DENC   =    -57459.08112147
  -exchange      EXHF   =         0.00000000
  -V(xc)+E(xc)   XCENC  =      1522.06334361
  PAW double counting   =     49212.87606367   -49253.19061540
  entropy T*S    EENTRO =        -0.00000000
  eigenvalues    EBANDS =     -4796.02783167
  atomic energy  EATOM  =     18057.05744655
  Solvation  Ediel_sol  =         0.00000000
  ---------------------------------------------------
  free energy    TOTEN  =      -936.72330433 eV

  energy without entropy =     -936.72330433  energy(sigma->0) =     -936.72330433
  exchange ACFDT corr.  =         0.00000000  see jH, gK, PRB 81, 115126


--------------------------------------------------------------------------------------------------------




--------------------------------------- Iteration      1(  13)  ---------------------------------------


    POTLOK:  cpu time    0.1306: real time    0.1314
    SETDIJ:  cpu time    0.7054: real time    0.7071
     EDDAV:  cpu time    2.0879: real time    2.0945
       DOS:  cpu time    0.0010: real time    0.0010
    CHARGE:  cpu time    0.2373: real time    0.2382
    MIXING:  cpu time    0.0042: real time    0.0042
    --------------------------------------------
      LOOP:  cpu time    3.1664: real time    3.1763

 eigenvalue-minimisations  :  1160
 total energy-change (2. order) :-0.5629860E-01  (-0.7744107E-02)
 number of electron     429.9999966 magnetization       2.2224652
 augmentation part       12.7023200 magnetization       0.4477644

 Broyden mixing:
  rms(total) = 0.26368E-01    rms(broyden)= 0.26362E-01
  rms(prec ) = 0.48397E-01
  weight for this iteration     100.00

[...]
  27      -0.000    -0.000    -0.000     0.000    -0.000
  28      -0.000    -0.000    -0.000     0.000    -0.000
  29       0.000     0.000     0.000    -0.000     0.000
  30      -0.000    -0.000    -0.000     0.000    -0.000
  31      -0.000    -0.000    -0.001     0.000    -0.001
  32       0.000     0.000     0.000     0.000     0.000
  33       0.000     0.000    -0.000    -0.000    -0.000
  34      -0.000    -0.000    -0.007     0.001    -0.007
  35      -0.000    -0.000     0.002     0.000     0.002
  36       0.002     0.002     0.017    -0.005     0.017
  37      -0.005    -0.005    -0.078     0.012    -0.078
  38      -0.003    -0.003    -0.052     0.007    -0.052
  39      -0.000    -0.000    -0.006     0.001    -0.006
  40      -0.004    -0.004     0.103     0.016     0.103
  41      -0.004    -0.004     0.083     0.015     0.083
  42      -0.000    -0.000    -0.006     0.001    -0.006
  43      -0.004    -0.004     0.103     0.016     0.103
  44      -0.004    -0.004     0.083     0.015     0.083
  45       0.002     0.002     0.017    -0.005     0.017
  46      -0.005    -0.005    -0.078     0.012    -0.078
  47      -0.003    -0.003    -0.052     0.007    -0.052
  48       0.000     0.000    -0.000    -0.000    -0.000
  49      -0.000    -0.000    -0.007     0.001    -0.007
  50      -0.000    -0.000     0.002     0.000     0.002
  51      -0.000    -0.000    -0.000     0.000    -0.000
  52      -0.000    -0.000    -0.001     0.000    -0.001
  53       0.000     0.000     0.000     0.000     0.000
  54       0.000     0.000     0.001    -0.000     0.001
  55       0.000     0.000     0.000    -0.000     0.000
  56      -0.000    -0.000     0.000     0.000     0.000
  57       0.001     0.001     0.006    -0.001     0.006
  58       0.000     0.000     0.001    -0.000     0.001
  59      -0.000    -0.000     0.000     0.000     0.000
  60       0.010     0.011     0.076    -0.010     0.076
  61       0.003     0.003     0.009    -0.004     0.009
  62       0.002     0.002     0.004    -0.002     0.004
  63       0.255     0.256     1.940    -0.247     1.939
  64       0.113     0.113     0.340    -0.141     0.340
  65       0.017     0.017     0.154    -0.015     0.154
  66       0.111     0.112     0.374    -0.137     0.373
  67       0.009     0.009     0.071    -0.009     0.071
  68       0.255     0.256     1.940    -0.247     1.939
  69       0.113     0.113     0.340    -0.141     0.340
  70       0.017     0.017     0.154    -0.015     0.154
  71       0.010     0.011     0.076    -0.010     0.076
  72       0.003     0.003     0.009    -0.004     0.009
  73       0.002     0.002     0.004    -0.002     0.004
  74       0.001     0.001     0.006    -0.001     0.006
  75       0.000     0.000     0.001    -0.000     0.001
  76      -0.000    -0.000     0.000     0.000     0.000
  77       0.000     0.000     0.001    -0.000     0.001
  78       0.000     0.000     0.000    -0.000     0.000
  79      -0.000    -0.000     0.000     0.000     0.000
  80       0.000     0.000     0.000     0.000     0.000
  81       0.000     0.000     0.001    -0.000     0.001
  82      -0.000    -0.000    -0.000     0.000    -0.000
  83       0.000     0.000     0.001    -0.000     0.001
  84       0.001     0.001     0.011    -0.001     0.011
  85      -0.000    -0.000    -0.000     0.000    -0.000
  86       0.001     0.001     0.005    -0.001     0.005
  87       0.017     0.017     0.142    -0.015     0.142
  88      -0.000    -0.000    -0.000     0.000    -0.000
  89       0.019     0.019     0.119    -0.021     0.119
  90       0.250     0.251     1.945    -0.239     1.944
  91       0.003     0.003     0.008    -0.004     0.008
  92       0.003     0.003     0.025    -0.003     0.025
  93       0.251     0.252     1.929    -0.242     1.929
  94       0.003     0.003     0.025    -0.003     0.025
  95       0.251     0.252     1.929    -0.242     1.929
  96       0.019     0.019     0.119    -0.021     0.119
  97       0.250     0.251     1.945    -0.239     1.944
  98       0.003     0.003     0.008    -0.004     0.008
  99       0.001     0.001     0.005    -0.001     0.005
 100       0.017     0.017     0.142    -0.015     0.142
 101      -0.000    -0.000    -0.000     0.000    -0.000
 102       0.000     0.000     0.001    -0.000     0.001
 103       0.001     0.001     0.011    -0.001     0.011
 104      -0.000    -0.000    -0.000     0.000    -0.000
 105       3.898     3.910    20.220    -4.342    20.209
 106       3.898     3.910    20.220    -4.342    20.209
 107       3.901     3.913    20.249    -4.345    20.238
 -------------------------------------------------------------


 Dipolar hyperfine coupling parameters (MHz)
 ---------------------------------------------------------------------
  ion      A_xx      A_yy      A_zz      A_xy      A_xz      A_yz
 ---------------------------------------------------------------------
   1       0.004    -0.001    -0.003     0.000     0.000     0.000
   2       0.006    -0.003    -0.003    -0.000    -0.000    -0.000
   3       0.004    -0.001    -0.003    -0.000    -0.000     0.000
   4       0.005    -0.000    -0.005     0.002    -0.000    -0.000
   5       0.012    -0.004    -0.008    -0.003     0.000     0.000
   6       0.005    -0.000    -0.004    -0.002     0.000    -0.000
   7       0.008     0.006    -0.013     0.008     0.000     0.000
   8       0.052    -0.009    -0.043    -0.036    -0.000    -0.000
   9       0.005     0.005    -0.010    -0.007    -0.000     0.000
  10      -0.030     0.075    -0.045     0.006    -0.000    -0.000
  11       0.215     0.081    -0.296    -0.237    -0.000     0.000
  12       0.035     0.010    -0.045    -0.045     0.000    -0.000
  13      -0.012     0.048    -0.035     0.000     0.000     0.000
  14      -0.018     0.079    -0.061     0.000    -0.000     0.000
  15      -0.030     0.075    -0.045    -0.006     0.000    -0.000
  16       0.215     0.081    -0.296     0.237     0.000     0.000
  17       0.035     0.010    -0.045     0.045    -0.000    -0.000
  18       0.008     0.006    -0.013    -0.008    -0.000     0.000
  19       0.052    -0.009    -0.043     0.036    -0.000     0.000
  20       0.005     0.005    -0.010     0.007     0.000     0.000
  21       0.005    -0.000    -0.005    -0.002    -0.000     0.000
  22       0.012    -0.004    -0.008     0.003     0.000    -0.000
  23       0.005    -0.000    -0.004     0.002    -0.000     0.000
  24       0.004    -0.001    -0.003    -0.000     0.000    -0.000
  25       0.006    -0.003    -0.003     0.000    -0.000     0.000
  26       0.004    -0.001    -0.003     0.000    -0.000    -0.000
  27       0.004    -0.001    -0.003    -0.000    -0.000     0.000
  28       0.005    -0.002    -0.003     0.000    -0.000    -0.000
  29       0.005    -0.002    -0.003     0.000     0.000    -0.000
  30       0.004    -0.000    -0.003     0.000     0.000    -0.000
  31       0.006    -0.002    -0.004     0.001     0.000     0.000
  32       0.006    -0.002    -0.004    -0.001    -0.000     0.000
  33       0.003     0.003    -0.006     0.000    -0.000     0.000
  34       0.014    -0.002    -0.012     0.006    -0.000    -0.000
  35       0.011    -0.002    -0.009    -0.006     0.000    -0.000
  36      -0.002     0.017    -0.015    -0.006    -0.000     0.000
  37       0.051     0.010    -0.061     0.037     0.000     0.000
  38       0.028     0.007    -0.034    -0.021    -0.000     0.000
  39      -0.011     0.029    -0.018    -0.001     0.000    -0.000
  40      -0.095     0.390    -0.295    -0.060    -0.000    -0.000
  41       0.316    -0.019    -0.297    -0.180     0.000    -0.000
  42      -0.011     0.029    -0.018     0.001    -0.000    -0.000
  43      -0.095     0.390    -0.295     0.060     0.000    -0.000
  44       0.316    -0.019    -0.297     0.180    -0.000     0.000
  45      -0.002     0.017    -0.015     0.006     0.000     0.000
  46       0.051     0.010    -0.061    -0.037     0.000    -0.000
  47       0.028     0.007    -0.034     0.021    -0.000    -0.000
  48       0.003     0.003    -0.006    -0.000     0.000     0.000
  49       0.014    -0.002    -0.012    -0.006    -0.000     0.000
  50       0.011    -0.002    -0.009     0.006     0.000     0.000
  51       0.004    -0.000    -0.003    -0.000     0.000     0.000
  52       0.006    -0.002    -0.004    -0.001     0.000    -0.000
  53       0.006    -0.002    -0.004     0.001    -0.000    -0.000
  54       0.005    -0.002    -0.003     0.001     0.000    -0.000
  55       0.005    -0.002    -0.003    -0.000    -0.000     0.000
  56       0.004    -0.001    -0.003    -0.000    -0.000     0.000
  57       0.008    -0.002    -0.006     0.004    -0.000     0.000
  58       0.009    -0.003    -0.006    -0.002     0.000    -0.000
  59       0.004     0.001    -0.004    -0.000     0.000    -0.000
  60       0.027    -0.001    -0.026     0.028     0.000    -0.000
  61       0.029    -0.004    -0.025    -0.004    -0.000     0.000
  62       0.000     0.010    -0.010     0.000    -0.000     0.000
  63       0.150     0.166    -0.316     0.467    -0.000     0.000
  64       0.032     0.193    -0.225     0.125     0.000     0.000
  65      -0.018     0.052    -0.034    -0.024     0.000    -0.000
  66       0.258    -0.033    -0.225    -0.000     0.000    -0.000
  67      -0.025     0.057    -0.031     0.000    -0.000     0.000
  68       0.150     0.166    -0.316    -0.467     0.000     0.000
  69       0.032     0.193    -0.225    -0.125     0.000     0.000
  70      -0.018     0.052    -0.034     0.024    -0.000    -0.000
  71       0.027    -0.001    -0.026    -0.028    -0.000     0.000
  72       0.029    -0.004    -0.025     0.004    -0.000    -0.000
  73       0.000     0.010    -0.010    -0.000     0.000     0.000
  74       0.008    -0.002    -0.006    -0.004     0.000    -0.000
  75       0.009    -0.003    -0.006     0.002     0.000     0.000
  76       0.004     0.001    -0.004     0.000     0.000     0.000
  77       0.005    -0.002    -0.003    -0.001     0.000     0.000
  78       0.005    -0.002    -0.003     0.000    -0.000    -0.000
  79       0.004    -0.001    -0.003     0.000    -0.000    -0.000
  80       0.004    -0.001    -0.003    -0.000    -0.000     0.000
  81       0.006    -0.003    -0.003     0.000     0.000    -0.000
  82       0.004    -0.002    -0.003    -0.000    -0.000     0.000
  83       0.004    -0.001    -0.003     0.001     0.000    -0.000
  84       0.010    -0.005    -0.006     0.001    -0.000     0.000
  85       0.005    -0.001    -0.004    -0.001     0.000     0.000
  86       0.004     0.003    -0.007     0.005    -0.000     0.000
  87       0.052    -0.023    -0.028     0.013     0.000    -0.000
  88       0.007     0.001    -0.008    -0.004     0.000    -0.000
  89      -0.004     0.040    -0.036     0.038     0.000     0.000
  90       0.540    -0.234    -0.306     0.237    -0.000    -0.000
  91       0.005     0.022    -0.026    -0.016    -0.000    -0.000
  92      -0.005     0.033    -0.029     0.011    -0.000    -0.000
  93      -0.249     0.561    -0.313    -0.229     0.000     0.000
  94      -0.005     0.033    -0.029    -0.011     0.000    -0.000
  95      -0.249     0.561    -0.313     0.229    -0.000     0.000
  96      -0.004     0.040    -0.036    -0.038    -0.000     0.000
  97       0.540    -0.234    -0.306    -0.237    -0.000    -0.000
  98       0.005     0.022    -0.026     0.016     0.000    -0.000
  99       0.004     0.003    -0.007    -0.005    -0.000     0.000
 100       0.052    -0.023    -0.028    -0.013     0.000     0.000
 101       0.007     0.001    -0.008     0.004    -0.000     0.000
 102       0.004    -0.001    -0.003    -0.001     0.000     0.000
 103       0.010    -0.005    -0.006    -0.001    -0.000    -0.000
 104       0.005    -0.001    -0.004     0.001     0.000    -0.000
 105       5.636    -1.242    -4.393    -6.077     0.000     0.000
 106       5.636    -1.242    -4.393     6.077     0.000     0.000
 107      -4.786     9.178    -4.392     0.000    -0.000     0.000
 ---------------------------------------------------------------------


 Total hyperfine coupling parameters after diagonalization (MHz)
 (convention: |A_zz| > |A_xx| > |A_yy|)
 ----------------------------------------------------------------------
  ion      A_xx      A_yy      A_zz     asymmetry (A_yy - A_xx)/ A_zz 
 ----------------------------------------------------------------------
   1      -0.003    -0.002     0.004       0.377
   2      -0.002    -0.002     0.007       0.106
   3      -0.003    -0.001     0.004       0.382
   4       0.005    -0.002    -0.006       1.197
   5       0.015     0.012     0.033      -0.084
   6      -0.005    -0.001     0.005       0.731
   7       0.009    -0.007    -0.019       0.819
   8       0.186     0.168     0.281      -0.064
   9       0.010    -0.005    -0.013       1.164
  10       0.183     0.167     0.288      -0.054
  11      -0.180     0.018     0.510       0.388
  12       0.191     0.170     0.284      -0.076
  13      -0.061    -0.000    -0.084      -0.719
  14      -0.090     0.007    -0.133      -0.726
  15       0.183     0.167     0.288      -0.054
  16      -0.180     0.018     0.510       0.388
  17       0.191     0.170     0.284      -0.076
  18       0.009    -0.007    -0.019       0.819
  19       0.186     0.168     0.281      -0.064
  20       0.010    -0.005    -0.013       1.164
  21       0.005    -0.002    -0.006       1.197
  22       0.015     0.012     0.033      -0.084
  23      -0.005    -0.001     0.005       0.731
  24      -0.003    -0.002     0.004       0.377
  25      -0.002    -0.002     0.007       0.106
  26      -0.003    -0.001     0.004       0.382
  27      -0.003    -0.001     0.004       0.449
  28      -0.003    -0.002     0.005       0.169
  29      -0.003    -0.002     0.005       0.181
  30      -0.004    -0.001     0.004       0.798
  31      -0.005    -0.003     0.006       0.274
  32      -0.003    -0.002     0.006       0.229
  33       0.003     0.002    -0.006       0.099
  34      -0.011     0.009    -0.019      -1.060
  35      -0.007    -0.002     0.015       0.329
  36       0.013     0.003     0.036      -0.289
  37      -0.089    -0.005    -0.139      -0.605
  38      -0.058    -0.011    -0.086      -0.547
  39       0.023    -0.017    -0.023       1.726
  40      -0.192     0.001     0.500       0.386
  41      -0.214    -0.014     0.478       0.418
  42       0.023    -0.017    -0.023       1.726
  43      -0.192     0.001     0.500       0.386
  44      -0.214    -0.014     0.478       0.418
  45       0.013     0.003     0.036      -0.289
  46      -0.089    -0.005    -0.139      -0.605
  47      -0.058    -0.011    -0.086      -0.547
  48       0.003     0.002    -0.006       0.099
  49      -0.011     0.009    -0.019      -1.060
  50      -0.007    -0.002     0.015       0.329
  51      -0.004    -0.001     0.004       0.798
  52      -0.005    -0.003     0.006       0.274
  53      -0.003    -0.002     0.006       0.229
  54      -0.003    -0.002     0.006       0.186
  55      -0.003    -0.002     0.006       0.155
  56      -0.003    -0.001     0.004       0.514
  57       0.002    -0.000     0.015      -0.149
  58      -0.005    -0.002     0.011       0.255
  59      -0.004     0.001     0.004       1.165
  60       0.057     0.049     0.120      -0.065
  61      -0.015     0.005     0.038       0.521
  62      -0.006     0.004     0.014       0.731
  63       1.630     1.623     2.564      -0.003
  64       0.304     0.115     0.601      -0.314
  65       0.129     0.121     0.213      -0.038
  66       0.340     0.149     0.631      -0.303
  67       0.046     0.040     0.128      -0.047
  68       1.630     1.623     2.564      -0.003
  69       0.304     0.115     0.601      -0.314
  70       0.129     0.121     0.213      -0.038
  71       0.057     0.049     0.120      -0.065
  72      -0.015     0.005     0.038       0.521
  73      -0.006     0.004     0.014       0.731
  74       0.002    -0.000     0.015      -0.149
  75      -0.005    -0.002     0.011       0.255
  76      -0.004     0.001     0.004       1.165
  77      -0.003    -0.002     0.006       0.186
  78      -0.003    -0.002     0.006       0.155
  79      -0.003    -0.001     0.004       0.514
  80      -0.003    -0.001     0.004       0.367
  81      -0.002    -0.002     0.007       0.079
  82      -0.003    -0.002     0.004       0.310
  83      -0.003    -0.000     0.005       0.500
  84       0.006     0.005     0.021      -0.045
  85      -0.004    -0.002     0.005       0.457
  86       0.003    -0.002     0.013      -0.445
  87       0.117     0.114     0.196      -0.016
  88      -0.008    -0.002     0.008       0.774
  89       0.094     0.083     0.181      -0.056
  90       1.643     1.638     2.551      -0.002
  91      -0.018     0.002     0.039       0.535
  92       0.018    -0.003     0.062      -0.338
  93       1.620     1.616     2.550      -0.001
  94       0.018    -0.003     0.062      -0.338
  95       1.620     1.616     2.550      -0.001
  96       0.094     0.083     0.181      -0.056
  97       1.643     1.638     2.551      -0.002
  98      -0.018     0.002     0.039       0.535
  99       0.003    -0.002     0.013      -0.445
 100       0.117     0.114     0.196      -0.016
 101      -0.008    -0.002     0.008       0.774
 102      -0.003    -0.000     0.005       0.500
 103       0.006     0.005     0.021      -0.045
 104      -0.004    -0.002     0.005       0.457
 105      15.816    15.423    29.388      -0.013
 106      15.816    15.423    29.388      -0.013
 107      15.845    15.451    29.416      -0.013
 ---------------------------------------------------------------------


 Spin-spin contribution to zero-field splitting tensor (MHz)
 ---------------------------------------------------------------
      D_xx      D_yy      D_zz      D_xy      D_xz      D_yz
 ---------------------------------------------------------------
    -35.586 -1069.836  1105.421     0.000     0.000     0.000
 ---------------------------------------------------------------

 after diagonalization
 ---------------------------------------------
     D_diag          eigenvector (x,y,z)
 ---------------------------------------------
    -35.586       1.000     0.000     0.000
  -1069.836       0.000     1.000     0.000
   1105.421       0.000     0.000     1.000
---------------------------------------------



--------------------------------------------------------------------------------------------------------




--------------------------------------------------------------------------------------------------------


  
 reached required accuracy - stopping structural energy minimisation
 writing wavefunctions
     LOOP+:  cpu time  212.1155: real time  215.3481
    4ORBIT:  cpu time    0.0000: real time    0.0000

 total amount of memory used by VASP MPI-rank0    59101. kBytes
=======================================================================

   base      :      30000. kBytes
   nonlr-proj:       1467. kBytes
   fftplans  :       6234. kBytes
   grid      :      14615. kBytes
   one-center:         27. kBytes
   HF        :          9. kBytes
   wavefun   :       6749. kBytes
 
  
  
 General timing and accounting informations for this job:
 ========================================================
  
                  Total CPU time used (sec):      226.825
                            User time (sec):      221.664
                          System time (sec):        5.161
                         Elapsed time (sec):      231.277
  
                   Maximum memory used (kb):      240236.
                   Average memory used (kb):          N/A
  
                          Minor page faults:       379349
                          Major page faults:            0
                 Voluntary context switches:        14026
